<?xml version="1.0" encoding="UTF-8"?>

<!-- generated on 2025-09-02 11:36:24 by Eclipse SUMO sumo Version 1.18.0
<configuration xmlns:xsi="http://www.w3.org/2001/XMLSchema-instance" xsi:noNamespaceSchemaLocation="http://sumo.dlr.de/xsd/sumoConfiguration.xsd">

    <input>
        <net-file value="intersection.net.xml"/>
        <route-files value="intersection.rou.xml"/>
        <additional-files value="fixed_timer.add.xml"/>
    </input>

    <output>
        <tripinfo-output value="tripinfo_fixed.xml"/>
    </output>

    <time>
        <begin value="0"/>
        <end value="3600"/>
    </time>

</configuration>
-->

<tripinfos xmlns:xsi="http://www.w3.org/2001/XMLSchema-instance" xsi:noNamespaceSchemaLocation="http://sumo.dlr.de/xsd/tripinfo_file.xsd">
    <tripinfo id="flow_SN.0" depart="0.00" departLane="S_to_C_0" departPos="5.10" departSpeed="0.00" departDelay="0.00" arrival="17.00" arrivalLane="C_to_N_0" arrivalPos="89.60" arrivalSpeed="14.18" duration="17.00" routeLength="194.90" waitingTime="0.00" waitingCount="0" stopTime="0.00" timeLoss="3.99" rerouteNo="0" devices="tripinfo_flow_SN.0" vType="car" speedFactor="1.08" vaporized=""/>
    <tripinfo id="flow_NS.0" depart="0.00" departLane="N_to_C_0" departPos="5.10" departSpeed="0.00" departDelay="0.00" arrival="18.00" arrivalLane="C_to_S_0" arrivalPos="89.60" arrivalSpeed="14.27" duration="18.00" routeLength="194.90" waitingTime="0.00" waitingCount="0" stopTime="0.00" timeLoss="4.23" rerouteNo="0" devices="tripinfo_flow_NS.0" vType="car" speedFactor="1.06" vaporized=""/>
    <tripinfo id="flow_SE.0" depart="3.00" departLane="S_to_C_0" departPos="5.10" departSpeed="0.00" departDelay="3.00" arrival="23.00" arrivalLane="C_to_E_0" arrivalPos="89.60" arrivalSpeed="13.94" duration="20.00" routeLength="183.13" waitingTime="0.00" waitingCount="0" stopTime="0.00" timeLoss="5.43" rerouteNo="0" devices="tripinfo_flow_SE.0" vType="car" speedFactor="1.03" vaporized=""/>
    <tripinfo id="flow_NE.0" depart="3.00" departLane="N_to_C_0" departPos="5.10" departSpeed="0.00" departDelay="3.00" arrival="24.00" arrivalLane="C_to_E_1" arrivalPos="89.60" arrivalSpeed="12.63" duration="21.00" routeLength="193.45" waitingTime="0.00" waitingCount="0" stopTime="0.00" timeLoss="5.05" rerouteNo="0" devices="tripinfo_flow_NE.0" vType="car" speedFactor="0.94" vaporized=""/>
    <tripinfo id="flow_NW.0" depart="6.00" departLane="N_to_C_0" departPos="5.10" departSpeed="0.00" departDelay="6.00" arrival="26.00" arrivalLane="C_to_W_0" arrivalPos="89.60" arrivalSpeed="12.75" duration="20.00" routeLength="183.13" waitingTime="0.00" waitingCount="0" stopTime="0.00" timeLoss="5.94" rerouteNo="0" devices="tripinfo_flow_NW.0" vType="car" speedFactor="1.01" vaporized=""/>
    <tripinfo id="flow_SN.1" depart="10.00" departLane="S_to_C_0" departPos="5.10" departSpeed="0.00" departDelay="0.00" arrival="27.00" arrivalLane="C_to_N_0" arrivalPos="89.60" arrivalSpeed="15.44" duration="17.00" routeLength="194.90" waitingTime="0.00" waitingCount="0" stopTime="0.00" timeLoss="3.64" rerouteNo="0" devices="tripinfo_flow_SN.1" vType="car" speedFactor="1.12" vaporized=""/>
    <tripinfo id="flow_NS.1" depart="10.00" departLane="N_to_C_0" departPos="5.10" departSpeed="0.00" departDelay="0.00" arrival="28.00" arrivalLane="C_to_S_0" arrivalPos="89.60" arrivalSpeed="13.37" duration="18.00" routeLength="194.90" waitingTime="0.00" waitingCount="0" stopTime="0.00" timeLoss="3.82" rerouteNo="0" devices="tripinfo_flow_NS.1" vType="car" speedFactor="1.05" vaporized=""/>
    <tripinfo id="flow_SW.0" depart="6.00" departLane="S_to_C_0" departPos="5.10" departSpeed="0.00" departDelay="6.00" arrival="34.00" arrivalLane="C_to_W_1" arrivalPos="89.60" arrivalSpeed="11.21" duration="28.00" routeLength="193.45" waitingTime="2.00" waitingCount="1" stopTime="0.00" timeLoss="9.95" rerouteNo="0" devices="tripinfo_flow_SW.0" vType="car" speedFactor="0.83" vaporized=""/>
    <tripinfo id="flow_NE.1" depart="15.00" departLane="N_to_C_0" departPos="5.10" departSpeed="0.00" departDelay="0.00" arrival="35.00" arrivalLane="C_to_E_1" arrivalPos="89.60" arrivalSpeed="12.95" duration="20.00" routeLength="193.45" waitingTime="0.00" waitingCount="0" stopTime="0.00" timeLoss="4.94" rerouteNo="0" devices="tripinfo_flow_NE.1" vType="car" speedFactor="1.02" vaporized=""/>
    <tripinfo id="flow_SE.1" depart="15.00" departLane="S_to_C_0" departPos="5.10" departSpeed="0.00" departDelay="0.00" arrival="35.00" arrivalLane="C_to_E_0" arrivalPos="89.60" arrivalSpeed="12.51" duration="20.00" routeLength="183.13" waitingTime="0.00" waitingCount="0" stopTime="0.00" timeLoss="5.58" rerouteNo="0" devices="tripinfo_flow_SE.1" vType="car" speedFactor="0.97" vaporized=""/>
    <tripinfo id="flow_NW.1" depart="17.00" departLane="N_to_C_0" departPos="5.10" departSpeed="0.00" departDelay="2.00" arrival="37.00" arrivalLane="C_to_W_0" arrivalPos="89.60" arrivalSpeed="13.51" duration="20.00" routeLength="183.13" waitingTime="0.00" waitingCount="0" stopTime="0.00" timeLoss="5.76" rerouteNo="0" devices="tripinfo_flow_NW.1" vType="car" speedFactor="1.01" vaporized=""/>
    <tripinfo id="flow_SW.1" depart="18.00" departLane="S_to_C_0" departPos="5.10" departSpeed="0.00" departDelay="3.00" arrival="40.00" arrivalLane="C_to_W_1" arrivalPos="89.60" arrivalSpeed="11.65" duration="22.00" routeLength="193.45" waitingTime="0.00" waitingCount="0" stopTime="0.00" timeLoss="4.57" rerouteNo="0" devices="tripinfo_flow_SW.1" vType="car" speedFactor="0.89" vaporized=""/>
    <tripinfo id="flow_EN.0" depart="0.00" departLane="E_to_C_0" departPos="5.10" departSpeed="0.00" departDelay="0.00" arrival="43.00" arrivalLane="C_to_N_0" arrivalPos="89.60" arrivalSpeed="14.52" duration="43.00" routeLength="183.13" waitingTime="19.00" waitingCount="1" stopTime="0.00" timeLoss="28.95" rerouteNo="0" devices="tripinfo_flow_EN.0" vType="car" speedFactor="1.05" vaporized=""/>
    <tripinfo id="flow_WS.0" depart="2.00" departLane="W_to_C_0" departPos="5.10" departSpeed="0.00" departDelay="2.00" arrival="43.00" arrivalLane="C_to_S_0" arrivalPos="89.60" arrivalSpeed="13.96" duration="41.00" routeLength="183.13" waitingTime="17.00" waitingCount="1" stopTime="0.00" timeLoss="27.59" rerouteNo="0" devices="tripinfo_flow_WS.0" vType="car" speedFactor="1.09" vaporized=""/>
    <tripinfo id="flow_ES.0" depart="3.00" departLane="E_to_C_0" departPos="5.10" departSpeed="0.00" departDelay="3.00" arrival="45.00" arrivalLane="C_to_S_1" arrivalPos="89.60" arrivalSpeed="11.74" duration="42.00" routeLength="193.45" waitingTime="17.00" waitingCount="1" stopTime="0.00" timeLoss="24.88" rerouteNo="0" devices="tripinfo_flow_ES.0" vType="car" speedFactor="0.89" vaporized=""/>
    <tripinfo id="flow_EW.0" depart="5.00" departLane="E_to_C_0" departPos="5.10" departSpeed="0.00" departDelay="5.00" arrival="46.00" arrivalLane="C_to_W_0" arrivalPos="89.60" arrivalSpeed="12.77" duration="41.00" routeLength="194.90" waitingTime="17.00" waitingCount="1" stopTime="0.00" timeLoss="25.76" rerouteNo="0" devices="tripinfo_flow_EW.0" vType="car" speedFactor="0.94" vaporized=""/>
    <tripinfo id="flow_WE.0" depart="5.00" departLane="W_to_C_0" departPos="5.10" departSpeed="0.00" departDelay="5.00" arrival="46.00" arrivalLane="C_to_E_0" arrivalPos="89.60" arrivalSpeed="13.14" duration="41.00" routeLength="194.90" waitingTime="16.00" waitingCount="1" stopTime="0.00" timeLoss="27.30" rerouteNo="0" devices="tripinfo_flow_WE.0" vType="car" speedFactor="1.03" vaporized=""/>
    <tripinfo id="flow_EN.1" depart="12.00" departLane="E_to_C_0" departPos="5.10" departSpeed="0.00" departDelay="0.00" arrival="48.00" arrivalLane="C_to_N_0" arrivalPos="89.60" arrivalSpeed="12.51" duration="36.00" routeLength="183.13" waitingTime="13.00" waitingCount="1" stopTime="0.00" timeLoss="21.76" rerouteNo="0" devices="tripinfo_flow_EN.1" vType="car" speedFactor="0.99" vaporized=""/>
    <tripinfo id="flow_WS.1" depart="14.00" departLane="W_to_C_0" departPos="5.10" departSpeed="0.00" departDelay="2.00" arrival="49.00" arrivalLane="C_to_S_0" arrivalPos="89.60" arrivalSpeed="12.14" duration="35.00" routeLength="183.13" waitingTime="9.00" waitingCount="1" stopTime="0.00" timeLoss="20.01" rerouteNo="0" devices="tripinfo_flow_WS.1" vType="car" speedFactor="0.94" vaporized=""/>
    <tripinfo id="flow_ES.1" depart="15.00" departLane="E_to_C_0" departPos="5.10" departSpeed="0.00" departDelay="3.00" arrival="51.00" arrivalLane="C_to_S_1" arrivalPos="89.60" arrivalSpeed="10.15" duration="36.00" routeLength="193.45" waitingTime="8.00" waitingCount="1" stopTime="0.00" timeLoss="20.03" rerouteNo="0" devices="tripinfo_flow_ES.1" vType="car" speedFactor="0.93" vaporized=""/>
    <tripinfo id="flow_EN.2" depart="24.00" departLane="E_to_C_0" departPos="5.10" departSpeed="0.00" departDelay="0.00" arrival="51.00" arrivalLane="C_to_N_0" arrivalPos="89.60" arrivalSpeed="12.71" duration="27.00" routeLength="183.13" waitingTime="0.00" waitingCount="0" stopTime="0.00" timeLoss="11.52" rerouteNo="0" devices="tripinfo_flow_EN.2" vType="car" speedFactor="0.92" vaporized=""/>
    <tripinfo id="flow_WS.2" depart="25.00" departLane="W_to_C_0" departPos="5.10" departSpeed="0.00" departDelay="1.00" arrival="51.00" arrivalLane="C_to_S_0" arrivalPos="89.60" arrivalSpeed="15.41" duration="26.00" routeLength="183.13" waitingTime="0.00" waitingCount="0" stopTime="0.00" timeLoss="13.56" rerouteNo="0" devices="tripinfo_flow_WS.2" vType="car" speedFactor="1.18" vaporized=""/>
    <tripinfo id="flow_EW.2" depart="28.00" departLane="E_to_C_0" departPos="5.10" departSpeed="0.00" departDelay="4.00" arrival="52.00" arrivalLane="C_to_W_0" arrivalPos="89.60" arrivalSpeed="15.26" duration="24.00" routeLength="194.90" waitingTime="0.00" waitingCount="0" stopTime="0.00" timeLoss="11.26" rerouteNo="0" devices="tripinfo_flow_EW.2" vType="car" speedFactor="1.13" vaporized=""/>
    <tripinfo id="flow_EW.1" depart="17.00" departLane="E_to_C_0" departPos="5.10" departSpeed="0.00" departDelay="5.00" arrival="53.00" arrivalLane="C_to_W_1" arrivalPos="89.60" arrivalSpeed="11.16" duration="36.00" routeLength="194.90" waitingTime="7.00" waitingCount="1" stopTime="0.00" timeLoss="19.61" rerouteNo="0" devices="tripinfo_flow_EW.1" vType="car" speedFactor="0.88" vaporized=""/>
    <tripinfo id="flow_WE.2" depart="28.00" departLane="W_to_C_0" departPos="5.10" departSpeed="0.00" departDelay="4.00" arrival="53.00" arrivalLane="C_to_E_0" arrivalPos="89.60" arrivalSpeed="15.08" duration="25.00" routeLength="194.90" waitingTime="0.00" waitingCount="0" stopTime="0.00" timeLoss="12.55" rerouteNo="0" devices="tripinfo_flow_WE.2" vType="car" speedFactor="1.15" vaporized=""/>
    <tripinfo id="flow_EN.3" depart="36.00" departLane="E_to_C_0" departPos="5.10" departSpeed="0.00" departDelay="0.00" arrival="56.00" arrivalLane="C_to_N_0" arrivalPos="89.60" arrivalSpeed="14.92" duration="20.00" routeLength="183.13" waitingTime="0.00" waitingCount="0" stopTime="0.00" timeLoss="6.59" rerouteNo="0" devices="tripinfo_flow_EN.3" vType="car" speedFactor="1.10" vaporized=""/>
    <tripinfo id="flow_WS.3" depart="37.00" departLane="W_to_C_0" departPos="5.10" departSpeed="0.00" departDelay="1.00" arrival="56.00" arrivalLane="C_to_S_0" arrivalPos="89.60" arrivalSpeed="14.07" duration="19.00" routeLength="183.13" waitingTime="0.00" waitingCount="0" stopTime="0.00" timeLoss="6.17" rerouteNo="0" devices="tripinfo_flow_WS.3" vType="car" speedFactor="1.09" vaporized=""/>
    <tripinfo id="flow_EW.3" depart="41.00" departLane="E_to_C_0" departPos="5.10" departSpeed="0.00" departDelay="5.00" arrival="58.00" arrivalLane="C_to_W_0" arrivalPos="89.60" arrivalSpeed="13.80" duration="17.00" routeLength="194.90" waitingTime="0.00" waitingCount="0" stopTime="0.00" timeLoss="3.16" rerouteNo="0" devices="tripinfo_flow_EW.3" vType="car" speedFactor="1.03" vaporized=""/>
    <tripinfo id="flow_WE.3" depart="40.00" departLane="W_to_C_0" departPos="5.10" departSpeed="0.00" departDelay="4.00" arrival="58.00" arrivalLane="C_to_E_0" arrivalPos="89.60" arrivalSpeed="13.25" duration="18.00" routeLength="194.90" waitingTime="0.00" waitingCount="0" stopTime="0.00" timeLoss="4.02" rerouteNo="0" devices="tripinfo_flow_WE.3" vType="car" speedFactor="1.04" vaporized=""/>
    <tripinfo id="flow_WE.1" depart="17.00" departLane="W_to_C_0" departPos="5.10" departSpeed="0.00" departDelay="5.00" arrival="62.00" arrivalLane="C_to_E_0" arrivalPos="89.60" arrivalSpeed="15.19" duration="45.00" routeLength="194.90" waitingTime="18.00" waitingCount="2" stopTime="0.00" timeLoss="32.07" rerouteNo="0" devices="tripinfo_flow_WE.1" vType="car" speedFactor="1.16" vaporized=""/>
    <tripinfo id="flow_WN.0" depart="0.00" departLane="W_to_C_0" departPos="5.10" departSpeed="0.00" departDelay="0.00" arrival="64.00" arrivalLane="C_to_N_1" arrivalPos="89.60" arrivalSpeed="11.06" duration="64.00" routeLength="193.45" waitingTime="37.00" waitingCount="2" stopTime="0.00" timeLoss="46.55" rerouteNo="0" devices="tripinfo_flow_WN.0" vType="car" speedFactor="0.86" vaporized=""/>
    <tripinfo id="flow_WN.1" depart="12.00" departLane="W_to_C_0" departPos="5.10" departSpeed="0.00" departDelay="0.00" arrival="66.00" arrivalLane="C_to_N_1" arrivalPos="89.60" arrivalSpeed="9.58" duration="54.00" routeLength="193.45" waitingTime="27.00" waitingCount="2" stopTime="0.00" timeLoss="38.44" rerouteNo="0" devices="tripinfo_flow_WN.1" vType="car" speedFactor="0.94" vaporized=""/>
    <tripinfo id="flow_ES.2" depart="27.00" departLane="E_to_C_0" departPos="5.10" departSpeed="0.00" departDelay="3.00" arrival="67.00" arrivalLane="C_to_S_1" arrivalPos="89.60" arrivalSpeed="12.87" duration="40.00" routeLength="193.45" waitingTime="8.00" waitingCount="1" stopTime="0.00" timeLoss="23.98" rerouteNo="0" devices="tripinfo_flow_ES.2" vType="car" speedFactor="0.95" vaporized=""/>
    <tripinfo id="flow_WN.2" depart="24.00" departLane="W_to_C_0" departPos="5.10" departSpeed="0.00" departDelay="0.00" arrival="69.00" arrivalLane="C_to_N_1" arrivalPos="89.60" arrivalSpeed="12.49" duration="45.00" routeLength="193.45" waitingTime="12.00" waitingCount="2" stopTime="0.00" timeLoss="28.48" rerouteNo="0" devices="tripinfo_flow_WN.2" vType="car" speedFactor="0.93" vaporized=""/>
    <tripinfo id="flow_EN.4" depart="48.00" departLane="E_to_C_0" departPos="5.10" departSpeed="0.00" departDelay="0.00" arrival="69.00" arrivalLane="C_to_N_0" arrivalPos="89.60" arrivalSpeed="11.18" duration="21.00" routeLength="183.13" waitingTime="0.00" waitingCount="0" stopTime="0.00" timeLoss="4.81" rerouteNo="0" devices="tripinfo_flow_EN.4" vType="car" speedFactor="0.85" vaporized=""/>
    <tripinfo id="flow_WS.4" depart="50.00" departLane="W_to_C_0" departPos="5.10" departSpeed="0.00" departDelay="2.00" arrival="69.00" arrivalLane="C_to_S_0" arrivalPos="89.60" arrivalSpeed="12.74" duration="19.00" routeLength="183.13" waitingTime="0.00" waitingCount="0" stopTime="0.00" timeLoss="5.25" rerouteNo="0" devices="tripinfo_flow_WS.4" vType="car" speedFactor="1.00" vaporized=""/>
    <tripinfo id="flow_ES.3" depart="39.00" departLane="E_to_C_0" departPos="5.10" departSpeed="0.00" departDelay="3.00" arrival="70.00" arrivalLane="C_to_S_1" arrivalPos="89.60" arrivalSpeed="11.79" duration="31.00" routeLength="193.45" waitingTime="4.00" waitingCount="1" stopTime="0.00" timeLoss="13.91" rerouteNo="0" devices="tripinfo_flow_ES.3" vType="car" speedFactor="0.90" vaporized=""/>
    <tripinfo id="flow_EW.4" depart="53.00" departLane="E_to_C_0" departPos="5.10" departSpeed="0.00" departDelay="5.00" arrival="71.00" arrivalLane="C_to_W_0" arrivalPos="89.60" arrivalSpeed="13.98" duration="18.00" routeLength="194.90" waitingTime="0.00" waitingCount="0" stopTime="0.00" timeLoss="4.01" rerouteNo="0" devices="tripinfo_flow_EW.4" vType="car" speedFactor="1.02" vaporized=""/>
    <tripinfo id="flow_WE.4" depart="53.00" departLane="W_to_C_0" departPos="5.10" departSpeed="0.00" departDelay="5.00" arrival="71.00" arrivalLane="C_to_E_0" arrivalPos="89.60" arrivalSpeed="13.58" duration="18.00" routeLength="194.90" waitingTime="0.00" waitingCount="0" stopTime="0.00" timeLoss="3.90" rerouteNo="0" devices="tripinfo_flow_WE.4" vType="car" speedFactor="1.00" vaporized=""/>
    <tripinfo id="flow_WN.3" depart="36.00" departLane="W_to_C_0" departPos="5.10" departSpeed="0.00" departDelay="0.00" arrival="76.00" arrivalLane="C_to_N_1" arrivalPos="89.60" arrivalSpeed="12.46" duration="40.00" routeLength="193.45" waitingTime="6.00" waitingCount="2" stopTime="0.00" timeLoss="23.73" rerouteNo="0" devices="tripinfo_flow_WN.3" vType="car" speedFactor="0.96" vaporized=""/>
    <tripinfo id="flow_ES.4" depart="51.00" departLane="E_to_C_0" departPos="5.10" departSpeed="0.00" departDelay="3.00" arrival="76.00" arrivalLane="C_to_S_1" arrivalPos="89.60" arrivalSpeed="15.31" duration="25.00" routeLength="193.45" waitingTime="2.00" waitingCount="1" stopTime="0.00" timeLoss="12.26" rerouteNo="0" devices="tripinfo_flow_ES.4" vType="car" speedFactor="1.17" vaporized=""/>
    <tripinfo id="flow_NS.3" depart="30.00" departLane="N_to_C_0" departPos="5.10" departSpeed="0.00" departDelay="0.00" arrival="78.00" arrivalLane="C_to_S_0" arrivalPos="89.60" arrivalSpeed="13.20" duration="48.00" routeLength="194.90" waitingTime="23.00" waitingCount="1" stopTime="0.00" timeLoss="33.30" rerouteNo="0" devices="tripinfo_flow_NS.3" vType="car" speedFactor="1.01" vaporized=""/>
    <tripinfo id="flow_NW.2" depart="35.00" departLane="N_to_C_0" departPos="5.10" departSpeed="0.00" departDelay="5.00" arrival="79.00" arrivalLane="C_to_W_0" arrivalPos="89.60" arrivalSpeed="12.91" duration="44.00" routeLength="183.13" waitingTime="20.00" waitingCount="1" stopTime="0.00" timeLoss="29.89" rerouteNo="0" devices="tripinfo_flow_NW.2" vType="car" speedFactor="0.99" vaporized=""/>
    <tripinfo id="flow_SN.3" depart="30.00" departLane="S_to_C_0" departPos="5.10" departSpeed="0.00" departDelay="0.00" arrival="79.00" arrivalLane="C_to_N_1" arrivalPos="89.60" arrivalSpeed="13.44" duration="49.00" routeLength="194.90" waitingTime="21.00" waitingCount="1" stopTime="0.00" timeLoss="34.78" rerouteNo="0" devices="tripinfo_flow_SN.3" vType="car" speedFactor="1.02" vaporized=""/>
    <tripinfo id="flow_NS.2" depart="20.00" departLane="N_to_C_0" departPos="5.10" departSpeed="0.00" departDelay="0.00" arrival="80.00" arrivalLane="C_to_S_0" arrivalPos="89.60" arrivalSpeed="10.59" duration="60.00" routeLength="194.90" waitingTime="32.00" waitingCount="1" stopTime="0.00" timeLoss="42.35" rerouteNo="0" devices="tripinfo_flow_NS.2" vType="car" speedFactor="0.83" vaporized=""/>
    <tripinfo id="flow_SN.2" depart="20.00" departLane="S_to_C_0" departPos="5.10" departSpeed="0.00" departDelay="0.00" arrival="80.00" arrivalLane="C_to_N_0" arrivalPos="89.60" arrivalSpeed="11.41" duration="60.00" routeLength="194.90" waitingTime="33.00" waitingCount="1" stopTime="0.00" timeLoss="43.14" rerouteNo="0" devices="tripinfo_flow_SN.2" vType="car" speedFactor="0.87" vaporized=""/>
    <tripinfo id="flow_SE.2" depart="33.00" departLane="S_to_C_0" departPos="5.10" departSpeed="0.00" departDelay="3.00" arrival="80.00" arrivalLane="C_to_E_0" arrivalPos="89.60" arrivalSpeed="12.29" duration="47.00" routeLength="183.13" waitingTime="22.00" waitingCount="1" stopTime="0.00" timeLoss="32.69" rerouteNo="0" devices="tripinfo_flow_SE.2" vType="car" speedFactor="0.97" vaporized=""/>
    <tripinfo id="flow_NS.4" depart="40.00" departLane="N_to_C_0" departPos="5.10" departSpeed="0.00" departDelay="0.00" arrival="82.00" arrivalLane="C_to_S_0" arrivalPos="89.60" arrivalSpeed="14.47" duration="42.00" routeLength="194.90" waitingTime="17.00" waitingCount="1" stopTime="0.00" timeLoss="27.69" rerouteNo="0" devices="tripinfo_flow_NS.4" vType="car" speedFactor="1.04" vaporized=""/>
    <tripinfo id="flow_SN.4" depart="40.00" departLane="S_to_C_0" departPos="5.10" departSpeed="0.00" departDelay="0.00" arrival="82.00" arrivalLane="C_to_N_0" arrivalPos="89.60" arrivalSpeed="14.52" duration="42.00" routeLength="194.90" waitingTime="16.00" waitingCount="1" stopTime="0.00" timeLoss="28.79" rerouteNo="0" devices="tripinfo_flow_SN.4" vType="car" speedFactor="1.09" vaporized=""/>
    <tripinfo id="flow_NW.3" depart="47.00" departLane="N_to_C_0" departPos="5.10" departSpeed="0.00" departDelay="2.00" arrival="85.00" arrivalLane="C_to_W_0" arrivalPos="89.60" arrivalSpeed="11.99" duration="38.00" routeLength="183.13" waitingTime="12.00" waitingCount="1" stopTime="0.00" timeLoss="22.31" rerouteNo="0" devices="tripinfo_flow_NW.3" vType="car" speedFactor="0.90" vaporized=""/>
    <tripinfo id="flow_NS.6" depart="60.00" departLane="N_to_C_0" departPos="5.10" departSpeed="0.00" departDelay="0.00" arrival="86.00" arrivalLane="C_to_S_0" arrivalPos="89.60" arrivalSpeed="13.27" duration="26.00" routeLength="194.90" waitingTime="0.00" waitingCount="0" stopTime="0.00" timeLoss="12.19" rerouteNo="0" devices="tripinfo_flow_NS.6" vType="car" speedFactor="1.02" vaporized=""/>
    <tripinfo id="flow_SE.3" depart="45.00" departLane="S_to_C_0" departPos="5.10" departSpeed="0.00" departDelay="0.00" arrival="87.00" arrivalLane="C_to_E_0" arrivalPos="89.60" arrivalSpeed="11.51" duration="42.00" routeLength="183.13" waitingTime="13.00" waitingCount="1" stopTime="0.00" timeLoss="25.32" rerouteNo="0" devices="tripinfo_flow_SE.3" vType="car" speedFactor="0.88" vaporized=""/>
    <tripinfo id="flow_NW.4" depart="65.00" departLane="N_to_C_0" departPos="5.10" departSpeed="0.00" departDelay="5.00" arrival="88.00" arrivalLane="C_to_W_0" arrivalPos="89.60" arrivalSpeed="14.52" duration="23.00" routeLength="183.13" waitingTime="0.00" waitingCount="0" stopTime="0.00" timeLoss="9.90" rerouteNo="0" devices="tripinfo_flow_NW.4" vType="car" speedFactor="1.08" vaporized=""/>
    <tripinfo id="flow_SN.6" depart="60.00" departLane="S_to_C_0" departPos="5.10" departSpeed="0.00" departDelay="0.00" arrival="88.00" arrivalLane="C_to_N_0" arrivalPos="89.60" arrivalSpeed="14.52" duration="28.00" routeLength="194.90" waitingTime="1.00" waitingCount="1" stopTime="0.00" timeLoss="14.65" rerouteNo="0" devices="tripinfo_flow_SN.6" vType="car" speedFactor="1.12" vaporized=""/>
    <tripinfo id="flow_SE.4" depart="63.00" departLane="S_to_C_0" departPos="5.10" departSpeed="0.00" departDelay="3.00" arrival="91.00" arrivalLane="C_to_E_0" arrivalPos="89.60" arrivalSpeed="13.63" duration="28.00" routeLength="183.13" waitingTime="0.00" waitingCount="0" stopTime="0.00" timeLoss="13.41" rerouteNo="0" devices="tripinfo_flow_SE.4" vType="car" speedFactor="1.02" vaporized=""/>
    <tripinfo id="flow_NS.7" depart="70.00" departLane="N_to_C_0" departPos="5.10" departSpeed="0.00" departDelay="0.00" arrival="91.00" arrivalLane="C_to_S_0" arrivalPos="89.60" arrivalSpeed="13.78" duration="21.00" routeLength="194.90" waitingTime="0.00" waitingCount="0" stopTime="0.00" timeLoss="6.50" rerouteNo="0" devices="tripinfo_flow_NS.7" vType="car" speedFactor="1.02" vaporized=""/>
    <tripinfo id="flow_SN.7" depart="70.00" departLane="S_to_C_0" departPos="5.10" departSpeed="0.00" departDelay="0.00" arrival="93.00" arrivalLane="C_to_N_0" arrivalPos="89.60" arrivalSpeed="13.39" duration="23.00" routeLength="194.90" waitingTime="0.00" waitingCount="0" stopTime="0.00" timeLoss="8.14" rerouteNo="0" devices="tripinfo_flow_SN.7" vType="car" speedFactor="0.97" vaporized=""/>
    <tripinfo id="flow_NS.5" depart="50.00" departLane="N_to_C_0" departPos="5.10" departSpeed="0.00" departDelay="0.00" arrival="95.00" arrivalLane="C_to_S_0" arrivalPos="89.60" arrivalSpeed="11.42" duration="45.00" routeLength="194.90" waitingTime="13.00" waitingCount="2" stopTime="0.00" timeLoss="28.86" rerouteNo="0" devices="tripinfo_flow_NS.5" vType="car" speedFactor="0.90" vaporized=""/>
    <tripinfo id="flow_NW.5" depart="77.00" departLane="N_to_C_0" departPos="5.10" departSpeed="0.00" departDelay="2.00" arrival="96.00" arrivalLane="C_to_W_0" arrivalPos="89.60" arrivalSpeed="14.41" duration="19.00" routeLength="183.13" waitingTime="0.00" waitingCount="0" stopTime="0.00" timeLoss="6.31" rerouteNo="0" devices="tripinfo_flow_NW.5" vType="car" speedFactor="1.09" vaporized=""/>
    <tripinfo id="flow_SE.5" depart="75.00" departLane="S_to_C_0" departPos="5.10" departSpeed="0.00" departDelay="0.00" arrival="96.00" arrivalLane="C_to_E_0" arrivalPos="89.60" arrivalSpeed="13.28" duration="21.00" routeLength="183.13" waitingTime="0.00" waitingCount="0" stopTime="0.00" timeLoss="6.86" rerouteNo="0" devices="tripinfo_flow_SE.5" vType="car" speedFactor="1.03" vaporized=""/>
    <tripinfo id="flow_SN.5" depart="50.00" departLane="S_to_C_0" departPos="5.10" departSpeed="0.00" departDelay="0.00" arrival="98.00" arrivalLane="C_to_N_0" arrivalPos="89.60" arrivalSpeed="15.34" duration="48.00" routeLength="194.90" waitingTime="16.00" waitingCount="2" stopTime="0.00" timeLoss="35.06" rerouteNo="0" devices="tripinfo_flow_SN.5" vType="car" speedFactor="1.14" vaporized=""/>
    <tripinfo id="flow_NS.8" depart="80.00" departLane="N_to_C_0" departPos="5.10" departSpeed="0.00" departDelay="0.00" arrival="98.00" arrivalLane="C_to_S_0" arrivalPos="89.60" arrivalSpeed="13.45" duration="18.00" routeLength="194.90" waitingTime="0.00" waitingCount="0" stopTime="0.00" timeLoss="4.17" rerouteNo="0" devices="tripinfo_flow_NS.8" vType="car" speedFactor="1.02" vaporized=""/>
    <tripinfo id="flow_SN.8" depart="80.00" departLane="S_to_C_0" departPos="5.10" departSpeed="0.00" departDelay="0.00" arrival="101.00" arrivalLane="C_to_N_0" arrivalPos="89.60" arrivalSpeed="12.92" duration="21.00" routeLength="194.90" waitingTime="0.00" waitingCount="0" stopTime="0.00" timeLoss="5.62" rerouteNo="0" devices="tripinfo_flow_SN.8" vType="car" speedFactor="0.97" vaporized=""/>
    <tripinfo id="flow_SW.2" depart="36.00" departLane="S_to_C_0" departPos="5.10" departSpeed="0.00" departDelay="6.00" arrival="102.00" arrivalLane="C_to_W_1" arrivalPos="89.60" arrivalSpeed="16.28" duration="66.00" routeLength="193.45" waitingTime="36.00" waitingCount="2" stopTime="0.00" timeLoss="53.23" rerouteNo="0" devices="tripinfo_flow_SW.2" vType="car" speedFactor="1.18" vaporized=""/>
    <tripinfo id="flow_NE.2" depart="33.00" departLane="N_to_C_0" departPos="5.10" departSpeed="0.00" departDelay="3.00" arrival="104.00" arrivalLane="C_to_E_1" arrivalPos="89.60" arrivalSpeed="14.99" duration="71.00" routeLength="193.45" waitingTime="42.00" waitingCount="2" stopTime="0.00" timeLoss="57.77" rerouteNo="0" devices="tripinfo_flow_NE.2" vType="car" speedFactor="1.17" vaporized=""/>
    <tripinfo id="flow_SW.3" depart="48.00" departLane="S_to_C_0" departPos="5.10" departSpeed="0.00" departDelay="3.00" arrival="106.00" arrivalLane="C_to_W_1" arrivalPos="89.60" arrivalSpeed="11.47" duration="58.00" routeLength="193.45" waitingTime="25.00" waitingCount="2" stopTime="0.00" timeLoss="40.38" rerouteNo="0" devices="tripinfo_flow_SW.3" vType="car" speedFactor="0.85" vaporized=""/>
    <tripinfo id="flow_EN.5" depart="60.00" departLane="E_to_C_0" departPos="5.10" departSpeed="0.00" departDelay="0.00" arrival="109.00" arrivalLane="C_to_N_0" arrivalPos="89.60" arrivalSpeed="12.46" duration="49.00" routeLength="183.13" waitingTime="26.00" waitingCount="1" stopTime="0.00" timeLoss="34.10" rerouteNo="0" devices="tripinfo_flow_EN.5" vType="car" speedFactor="0.94" vaporized=""/>
    <tripinfo id="flow_WS.5" depart="61.00" departLane="W_to_C_0" departPos="5.10" departSpeed="0.00" departDelay="1.00" arrival="109.00" arrivalLane="C_to_S_0" arrivalPos="89.60" arrivalSpeed="13.30" duration="48.00" routeLength="183.13" waitingTime="25.00" waitingCount="1" stopTime="0.00" timeLoss="33.92" rerouteNo="0" devices="tripinfo_flow_WS.5" vType="car" speedFactor="1.04" vaporized=""/>
    <tripinfo id="flow_WE.5" depart="64.00" departLane="W_to_C_0" departPos="5.10" departSpeed="0.00" departDelay="4.00" arrival="111.00" arrivalLane="C_to_E_0" arrivalPos="89.60" arrivalSpeed="13.92" duration="47.00" routeLength="194.90" waitingTime="24.00" waitingCount="1" stopTime="0.00" timeLoss="33.05" rerouteNo="0" devices="tripinfo_flow_WE.5" vType="car" speedFactor="1.02" vaporized=""/>
    <tripinfo id="flow_EW.5" depart="65.00" departLane="E_to_C_0" departPos="5.10" departSpeed="0.00" departDelay="5.00" arrival="112.00" arrivalLane="C_to_W_0" arrivalPos="89.60" arrivalSpeed="11.47" duration="47.00" routeLength="194.90" waitingTime="22.00" waitingCount="1" stopTime="0.00" timeLoss="31.10" rerouteNo="0" devices="tripinfo_flow_EW.5" vType="car" speedFactor="0.91" vaporized=""/>
    <tripinfo id="flow_EN.6" depart="72.00" departLane="E_to_C_0" departPos="5.10" departSpeed="0.00" departDelay="0.00" arrival="114.00" arrivalLane="C_to_N_0" arrivalPos="89.60" arrivalSpeed="12.82" duration="42.00" routeLength="183.13" waitingTime="16.00" waitingCount="1" stopTime="0.00" timeLoss="27.44" rerouteNo="0" devices="tripinfo_flow_EN.6" vType="car" speedFactor="0.94" vaporized=""/>
    <tripinfo id="flow_WS.6" depart="74.00" departLane="W_to_C_0" departPos="5.10" departSpeed="0.00" departDelay="2.00" arrival="114.00" arrivalLane="C_to_S_0" arrivalPos="89.60" arrivalSpeed="13.33" duration="40.00" routeLength="183.13" waitingTime="15.00" waitingCount="1" stopTime="0.00" timeLoss="25.71" rerouteNo="0" devices="tripinfo_flow_WS.6" vType="car" speedFactor="1.03" vaporized=""/>
    <tripinfo id="flow_WN.4" depart="48.00" departLane="W_to_C_0" departPos="5.10" departSpeed="0.00" departDelay="0.00" arrival="115.00" arrivalLane="C_to_N_1" arrivalPos="89.60" arrivalSpeed="14.99" duration="67.00" routeLength="193.45" waitingTime="34.00" waitingCount="3" stopTime="0.00" timeLoss="52.92" rerouteNo="0" devices="tripinfo_flow_WN.4" vType="car" speedFactor="1.10" vaporized=""/>