<?xml version="1.0" encoding="UTF-8"?>

<!-- generated on 2025-09-02 12:06:59 by Eclipse SUMO sumo Version 1.18.0
<configuration xmlns:xsi="http://www.w3.org/2001/XMLSchema-instance" xsi:noNamespaceSchemaLocation="http://sumo.dlr.de/xsd/sumoConfiguration.xsd">

    <input>
        <net-file value="intersection.net.xml"/>
        <route-files value="intersection.rou.xml"/>
    </input>

    <output>
        <tripinfo-output value="tripinfo.xml"/>
    </output>

    <time>
        <begin value="0"/>
        <end value="3600"/>
    </time>

    <traci_server>
        <remote-port value="50171"/>
    </traci_server>

</configuration>
-->

<tripinfos xmlns:xsi="http://www.w3.org/2001/XMLSchema-instance" xsi:noNamespaceSchemaLocation="http://sumo.dlr.de/xsd/tripinfo_file.xsd">
    <tripinfo id="flow_NS.0" depart="0.00" departLane="N_to_C_0" departPos="5.10" departSpeed="0.00" departDelay="0.00" arrival="18.00" arrivalLane="C_to_S_0" arrivalPos="89.60" arrivalSpeed="14.27" duration="18.00" routeLength="194.90" waitingTime="0.00" waitingCount="0" stopTime="0.00" timeLoss="4.39" rerouteNo="0" devices="tripinfo_flow_NS.0" vType="car" speedFactor="1.06" vaporized=""/>
    <tripinfo id="flow_SN.0" depart="0.00" departLane="S_to_C_0" departPos="5.10" departSpeed="0.00" departDelay="0.00" arrival="18.00" arrivalLane="C_to_N_0" arrivalPos="89.60" arrivalSpeed="14.18" duration="18.00" routeLength="194.90" waitingTime="0.00" waitingCount="0" stopTime="0.00" timeLoss="4.77" rerouteNo="0" devices="tripinfo_flow_SN.0" vType="car" speedFactor="1.08" vaporized=""/>
    <tripinfo id="flow_SE.0" depart="3.00" departLane="S_to_C_0" departPos="5.10" departSpeed="0.00" departDelay="3.00" arrival="23.00" arrivalLane="C_to_E_0" arrivalPos="89.60" arrivalSpeed="13.94" duration="20.00" routeLength="183.13" waitingTime="0.00" waitingCount="0" stopTime="0.00" timeLoss="5.43" rerouteNo="0" devices="tripinfo_flow_SE.0" vType="car" speedFactor="1.03" vaporized=""/>
    <tripinfo id="flow_NE.0" depart="3.00" departLane="N_to_C_0" departPos="5.10" departSpeed="0.00" departDelay="3.00" arrival="24.00" arrivalLane="C_to_E_1" arrivalPos="89.60" arrivalSpeed="12.63" duration="21.00" routeLength="193.45" waitingTime="0.00" waitingCount="0" stopTime="0.00" timeLoss="5.05" rerouteNo="0" devices="tripinfo_flow_NE.0" vType="car" speedFactor="0.94" vaporized=""/>
    <tripinfo id="flow_NW.0" depart="6.00" departLane="N_to_C_0" departPos="5.10" departSpeed="0.00" departDelay="6.00" arrival="26.00" arrivalLane="C_to_W_0" arrivalPos="89.60" arrivalSpeed="12.75" duration="20.00" routeLength="183.13" waitingTime="0.00" waitingCount="0" stopTime="0.00" timeLoss="5.94" rerouteNo="0" devices="tripinfo_flow_NW.0" vType="car" speedFactor="1.01" vaporized=""/>
    <tripinfo id="flow_SN.1" depart="10.00" departLane="S_to_C_0" departPos="5.10" departSpeed="0.00" departDelay="0.00" arrival="27.00" arrivalLane="C_to_N_0" arrivalPos="89.60" arrivalSpeed="15.24" duration="17.00" routeLength="194.90" waitingTime="0.00" waitingCount="0" stopTime="0.00" timeLoss="3.65" rerouteNo="0" devices="tripinfo_flow_SN.1" vType="car" speedFactor="1.12" vaporized=""/>
    <tripinfo id="flow_WS.0" depart="2.00" departLane="W_to_C_0" departPos="5.10" departSpeed="0.00" departDelay="2.00" arrival="30.00" arrivalLane="C_to_S_0" arrivalPos="89.60" arrivalSpeed="14.52" duration="28.00" routeLength="183.13" waitingTime="4.00" waitingCount="1" stopTime="0.00" timeLoss="14.87" rerouteNo="0" devices="tripinfo_flow_WS.0" vType="car" speedFactor="1.09" vaporized=""/>
    <tripinfo id="flow_SW.0" depart="6.00" departLane="S_to_C_0" departPos="5.10" departSpeed="0.00" departDelay="6.00" arrival="31.00" arrivalLane="C_to_W_1" arrivalPos="89.60" arrivalSpeed="10.35" duration="25.00" routeLength="193.45" waitingTime="0.00" waitingCount="0" stopTime="0.00" timeLoss="7.26" rerouteNo="0" devices="tripinfo_flow_SW.0" vType="car" speedFactor="0.83" vaporized=""/>
    <tripinfo id="flow_EN.0" depart="0.00" departLane="E_to_C_0" departPos="5.10" departSpeed="0.00" departDelay="0.00" arrival="32.00" arrivalLane="C_to_N_0" arrivalPos="89.60" arrivalSpeed="13.92" duration="32.00" routeLength="183.13" waitingTime="10.00" waitingCount="2" stopTime="0.00" timeLoss="18.16" rerouteNo="0" devices="tripinfo_flow_EN.0" vType="car" speedFactor="1.05" vaporized=""/>
    <tripinfo id="flow_WE.0" depart="5.00" departLane="W_to_C_0" departPos="5.10" departSpeed="0.00" departDelay="5.00" arrival="33.00" arrivalLane="C_to_E_0" arrivalPos="89.60" arrivalSpeed="13.22" duration="28.00" routeLength="194.90" waitingTime="3.00" waitingCount="1" stopTime="0.00" timeLoss="13.43" rerouteNo="0" devices="tripinfo_flow_WE.0" vType="car" speedFactor="1.03" vaporized=""/>
    <tripinfo id="flow_EN.1" depart="12.00" departLane="E_to_C_0" departPos="5.10" departSpeed="0.00" departDelay="0.00" arrival="34.00" arrivalLane="C_to_N_0" arrivalPos="89.60" arrivalSpeed="12.58" duration="22.00" routeLength="183.13" waitingTime="0.00" waitingCount="0" stopTime="0.00" timeLoss="7.68" rerouteNo="0" devices="tripinfo_flow_EN.1" vType="car" speedFactor="0.99" vaporized=""/>
    <tripinfo id="flow_WS.1" depart="14.00" departLane="W_to_C_0" departPos="5.10" departSpeed="0.00" departDelay="2.00" arrival="36.00" arrivalLane="C_to_S_0" arrivalPos="89.60" arrivalSpeed="11.81" duration="22.00" routeLength="183.13" waitingTime="0.00" waitingCount="0" stopTime="0.00" timeLoss="7.02" rerouteNo="0" devices="tripinfo_flow_WS.1" vType="car" speedFactor="0.94" vaporized=""/>
    <tripinfo id="flow_EW.1" depart="17.00" departLane="E_to_C_0" departPos="5.10" departSpeed="0.00" departDelay="5.00" arrival="37.00" arrivalLane="C_to_W_0" arrivalPos="89.60" arrivalSpeed="11.24" duration="20.00" routeLength="194.90" waitingTime="0.00" waitingCount="0" stopTime="0.00" timeLoss="3.83" rerouteNo="0" devices="tripinfo_flow_EW.1" vType="car" speedFactor="0.88" vaporized=""/>
    <tripinfo id="flow_WE.1" depart="17.00" departLane="W_to_C_0" departPos="5.10" departSpeed="0.00" departDelay="5.00" arrival="37.00" arrivalLane="C_to_E_0" arrivalPos="89.60" arrivalSpeed="15.52" duration="20.00" routeLength="194.90" waitingTime="0.00" waitingCount="0" stopTime="0.00" timeLoss="7.69" rerouteNo="0" devices="tripinfo_flow_WE.1" vType="car" speedFactor="1.16" vaporized=""/>
    <tripinfo id="flow_WN.0" depart="0.00" departLane="W_to_C_0" departPos="5.10" departSpeed="0.00" departDelay="0.00" arrival="41.00" arrivalLane="C_to_N_1" arrivalPos="89.60" arrivalSpeed="11.43" duration="41.00" routeLength="193.45" waitingTime="14.00" waitingCount="2" stopTime="0.00" timeLoss="23.72" rerouteNo="0" devices="tripinfo_flow_WN.0" vType="car" speedFactor="0.86" vaporized=""/>
    <tripinfo id="flow_NS.1" depart="10.00" departLane="N_to_C_0" departPos="5.10" departSpeed="0.00" departDelay="0.00" arrival="42.00" arrivalLane="C_to_S_0" arrivalPos="89.60" arrivalSpeed="14.08" duration="32.00" routeLength="194.90" waitingTime="10.00" waitingCount="1" stopTime="0.00" timeLoss="18.19" rerouteNo="0" devices="tripinfo_flow_NS.1" vType="car" speedFactor="1.05" vaporized=""/>
    <tripinfo id="flow_SE.1" depart="15.00" departLane="S_to_C_0" departPos="5.10" departSpeed="0.00" departDelay="0.00" arrival="42.00" arrivalLane="C_to_E_0" arrivalPos="89.60" arrivalSpeed="12.28" duration="27.00" routeLength="183.13" waitingTime="3.00" waitingCount="2" stopTime="0.00" timeLoss="12.90" rerouteNo="0" devices="tripinfo_flow_SE.1" vType="car" speedFactor="0.97" vaporized=""/>
    <tripinfo id="flow_ES.0" depart="3.00" departLane="E_to_C_0" departPos="5.10" departSpeed="0.00" departDelay="3.00" arrival="43.00" arrivalLane="C_to_S_1" arrivalPos="89.60" arrivalSpeed="11.56" duration="40.00" routeLength="193.45" waitingTime="14.00" waitingCount="2" stopTime="0.00" timeLoss="23.06" rerouteNo="0" devices="tripinfo_flow_ES.0" vType="car" speedFactor="0.89" vaporized=""/>
    <tripinfo id="flow_NW.1" depart="17.00" departLane="N_to_C_0" departPos="5.10" departSpeed="0.00" departDelay="2.00" arrival="44.00" arrivalLane="C_to_W_0" arrivalPos="89.60" arrivalSpeed="13.77" duration="27.00" routeLength="183.13" waitingTime="2.00" waitingCount="1" stopTime="0.00" timeLoss="12.88" rerouteNo="0" devices="tripinfo_flow_NW.1" vType="car" speedFactor="1.01" vaporized=""/>
    <tripinfo id="flow_NE.1" depart="15.00" departLane="N_to_C_0" departPos="5.10" departSpeed="0.00" departDelay="0.00" arrival="45.00" arrivalLane="C_to_E_1" arrivalPos="89.60" arrivalSpeed="12.95" duration="30.00" routeLength="193.45" waitingTime="3.00" waitingCount="2" stopTime="0.00" timeLoss="15.06" rerouteNo="0" devices="tripinfo_flow_NE.1" vType="car" speedFactor="1.02" vaporized=""/>
    <tripinfo id="flow_NS.2" depart="20.00" departLane="N_to_C_0" departPos="5.10" departSpeed="0.00" departDelay="0.00" arrival="48.00" arrivalLane="C_to_S_1" arrivalPos="89.60" arrivalSpeed="11.27" duration="28.00" routeLength="194.90" waitingTime="1.00" waitingCount="1" stopTime="0.00" timeLoss="10.93" rerouteNo="0" devices="tripinfo_flow_NS.2" vType="car" speedFactor="0.83" vaporized=""/>
    <tripinfo id="flow_NS.3" depart="30.00" departLane="N_to_C_0" departPos="5.10" departSpeed="0.00" departDelay="0.00" arrival="48.00" arrivalLane="C_to_S_0" arrivalPos="89.60" arrivalSpeed="13.67" duration="18.00" routeLength="194.90" waitingTime="0.00" waitingCount="0" stopTime="0.00" timeLoss="3.75" rerouteNo="0" devices="tripinfo_flow_NS.3" vType="car" speedFactor="1.01" vaporized=""/>
    <tripinfo id="flow_SN.2" depart="20.00" departLane="S_to_C_0" departPos="5.10" departSpeed="0.00" departDelay="0.00" arrival="50.00" arrivalLane="C_to_N_0" arrivalPos="89.60" arrivalSpeed="11.93" duration="30.00" routeLength="194.90" waitingTime="2.00" waitingCount="1" stopTime="0.00" timeLoss="13.06" rerouteNo="0" devices="tripinfo_flow_SN.2" vType="car" speedFactor="0.87" vaporized=""/>
    <tripinfo id="flow_NE.2" depart="33.00" departLane="N_to_C_0" departPos="5.10" departSpeed="0.00" departDelay="3.00" arrival="51.00" arrivalLane="C_to_E_1" arrivalPos="89.60" arrivalSpeed="16.10" duration="18.00" routeLength="193.45" waitingTime="0.00" waitingCount="0" stopTime="0.00" timeLoss="5.57" rerouteNo="0" devices="tripinfo_flow_NE.2" vType="car" speedFactor="1.17" vaporized=""/>
    <tripinfo id="flow_SN.3" depart="30.00" departLane="S_to_C_0" departPos="5.10" departSpeed="0.00" departDelay="0.00" arrival="51.00" arrivalLane="C_to_N_0" arrivalPos="89.60" arrivalSpeed="13.14" duration="21.00" routeLength="194.90" waitingTime="0.00" waitingCount="0" stopTime="0.00" timeLoss="7.06" rerouteNo="0" devices="tripinfo_flow_SN.3" vType="car" speedFactor="1.02" vaporized=""/>
    <tripinfo id="flow_SW.1" depart="18.00" departLane="S_to_C_0" departPos="5.10" departSpeed="0.00" departDelay="3.00" arrival="53.00" arrivalLane="C_to_W_1" arrivalPos="89.60" arrivalSpeed="11.65" duration="35.00" routeLength="193.45" waitingTime="8.00" waitingCount="1" stopTime="0.00" timeLoss="17.63" rerouteNo="0" devices="tripinfo_flow_SW.1" vType="car" speedFactor="0.89" vaporized=""/>
    <tripinfo id="flow_NW.2" depart="35.00" departLane="N_to_C_0" departPos="5.10" departSpeed="0.00" departDelay="5.00" arrival="53.00" arrivalLane="C_to_W_0" arrivalPos="89.60" arrivalSpeed="13.45" duration="18.00" routeLength="183.13" waitingTime="0.00" waitingCount="0" stopTime="0.00" timeLoss="4.17" rerouteNo="0" devices="tripinfo_flow_NW.2" vType="car" speedFactor="0.99" vaporized=""/>
    <tripinfo id="flow_SE.2" depart="33.00" departLane="S_to_C_0" departPos="5.10" departSpeed="0.00" departDelay="3.00" arrival="53.00" arrivalLane="C_to_E_0" arrivalPos="89.60" arrivalSpeed="13.20" duration="20.00" routeLength="183.13" waitingTime="0.00" waitingCount="0" stopTime="0.00" timeLoss="5.61" rerouteNo="0" devices="tripinfo_flow_SE.2" vType="car" speedFactor="0.97" vaporized=""/>
    <tripinfo id="flow_SW.2" depart="36.00" departLane="S_to_C_0" departPos="5.10" departSpeed="0.00" departDelay="6.00" arrival="59.00" arrivalLane="C_to_W_1" arrivalPos="89.60" arrivalSpeed="16.10" duration="23.00" routeLength="193.45" waitingTime="1.00" waitingCount="1" stopTime="0.00" timeLoss="10.18" rerouteNo="0" devices="tripinfo_flow_SW.2" vType="car" speedFactor="1.18" vaporized=""/>
    <tripinfo id="flow_WS.2" depart="26.00" departLane="W_to_C_0" departPos="5.10" departSpeed="0.00" departDelay="2.00" arrival="60.00" arrivalLane="C_to_S_0" arrivalPos="89.60" arrivalSpeed="15.46" duration="34.00" routeLength="183.13" waitingTime="10.00" waitingCount="1" stopTime="0.00" timeLoss="21.58" rerouteNo="0" devices="tripinfo_flow_WS.2" vType="car" speedFactor="1.18" vaporized=""/>
    <tripinfo id="flow_EW.0" depart="5.00" departLane="E_to_C_0" departPos="5.10" departSpeed="0.00" departDelay="5.00" arrival="61.00" arrivalLane="C_to_W_0" arrivalPos="89.60" arrivalSpeed="12.42" duration="56.00" routeLength="194.90" waitingTime="27.00" waitingCount="3" stopTime="0.00" timeLoss="40.32" rerouteNo="0" devices="tripinfo_flow_EW.0" vType="car" speedFactor="0.94" vaporized=""/>
    <tripinfo id="flow_WE.2" depart="29.00" departLane="W_to_C_0" departPos="5.10" departSpeed="0.00" departDelay="5.00" arrival="62.00" arrivalLane="C_to_E_0" arrivalPos="89.60" arrivalSpeed="15.30" duration="33.00" routeLength="194.90" waitingTime="10.00" waitingCount="1" stopTime="0.00" timeLoss="19.93" rerouteNo="0" devices="tripinfo_flow_WE.2" vType="car" speedFactor="1.15" vaporized=""/>
    <tripinfo id="flow_EN.2" depart="24.00" departLane="E_to_C_0" departPos="5.10" departSpeed="0.00" departDelay="0.00" arrival="63.00" arrivalLane="C_to_N_0" arrivalPos="89.60" arrivalSpeed="11.92" duration="39.00" routeLength="183.13" waitingTime="14.00" waitingCount="1" stopTime="0.00" timeLoss="23.24" rerouteNo="0" devices="tripinfo_flow_EN.2" vType="car" speedFactor="0.92" vaporized=""/>
    <tripinfo id="flow_EW.2" depart="29.00" departLane="E_to_C_0" departPos="5.10" departSpeed="0.00" departDelay="5.00" arrival="64.00" arrivalLane="C_to_W_0" arrivalPos="89.60" arrivalSpeed="14.42" duration="35.00" routeLength="194.90" waitingTime="10.00" waitingCount="1" stopTime="0.00" timeLoss="21.94" rerouteNo="0" devices="tripinfo_flow_EW.2" vType="car" speedFactor="1.13" vaporized=""/>
    <tripinfo id="flow_WS.3" depart="38.00" departLane="W_to_C_0" departPos="5.10" departSpeed="0.00" departDelay="2.00" arrival="65.00" arrivalLane="C_to_S_0" arrivalPos="89.60" arrivalSpeed="14.49" duration="27.00" routeLength="183.13" waitingTime="2.00" waitingCount="1" stopTime="0.00" timeLoss="13.20" rerouteNo="0" devices="tripinfo_flow_WS.3" vType="car" speedFactor="1.09" vaporized=""/>
    <tripinfo id="flow_EN.3" depart="36.00" departLane="E_to_C_0" departPos="5.10" departSpeed="0.00" departDelay="0.00" arrival="66.00" arrivalLane="C_to_N_0" arrivalPos="89.60" arrivalSpeed="14.77" duration="30.00" routeLength="183.13" waitingTime="5.00" waitingCount="1" stopTime="0.00" timeLoss="17.32" rerouteNo="0" devices="tripinfo_flow_EN.3" vType="car" speedFactor="1.10" vaporized=""/>
    <tripinfo id="flow_WE.3" depart="41.00" departLane="W_to_C_0" departPos="5.10" departSpeed="0.00" departDelay="5.00" arrival="66.00" arrivalLane="C_to_E_0" arrivalPos="89.60" arrivalSpeed="14.39" duration="25.00" routeLength="194.90" waitingTime="0.00" waitingCount="0" stopTime="0.00" timeLoss="11.36" rerouteNo="0" devices="tripinfo_flow_WE.3" vType="car" speedFactor="1.04" vaporized=""/>
    <tripinfo id="flow_WN.1" depart="12.00" departLane="W_to_C_0" departPos="5.10" departSpeed="0.00" departDelay="0.00" arrival="68.00" arrivalLane="C_to_N_1" arrivalPos="89.60" arrivalSpeed="12.23" duration="56.00" routeLength="193.45" waitingTime="30.00" waitingCount="3" stopTime="0.00" timeLoss="40.41" rerouteNo="0" devices="tripinfo_flow_WN.1" vType="car" speedFactor="0.94" vaporized=""/>
    <tripinfo id="flow_WS.4" depart="50.00" departLane="W_to_C_0" departPos="5.10" departSpeed="0.00" departDelay="2.00" arrival="70.00" arrivalLane="C_to_S_0" arrivalPos="89.60" arrivalSpeed="12.83" duration="20.00" routeLength="183.13" waitingTime="0.00" waitingCount="0" stopTime="0.00" timeLoss="6.03" rerouteNo="0" devices="tripinfo_flow_WS.4" vType="car" speedFactor="1.00" vaporized=""/>
    <tripinfo id="flow_EN.4" depart="48.00" departLane="E_to_C_0" departPos="5.10" departSpeed="0.00" departDelay="0.00" arrival="71.00" arrivalLane="C_to_N_0" arrivalPos="89.60" arrivalSpeed="11.20" duration="23.00" routeLength="183.13" waitingTime="0.00" waitingCount="0" stopTime="0.00" timeLoss="6.43" rerouteNo="0" devices="tripinfo_flow_EN.4" vType="car" speedFactor="0.85" vaporized=""/>
    <tripinfo id="flow_EW.4" depart="53.00" departLane="E_to_C_0" departPos="5.10" departSpeed="0.00" departDelay="5.00" arrival="72.00" arrivalLane="C_to_W_0" arrivalPos="89.60" arrivalSpeed="13.14" duration="19.00" routeLength="194.90" waitingTime="0.00" waitingCount="0" stopTime="0.00" timeLoss="5.12" rerouteNo="0" devices="tripinfo_flow_EW.4" vType="car" speedFactor="1.02" vaporized=""/>
    <tripinfo id="flow_WE.4" depart="53.00" departLane="W_to_C_0" departPos="5.10" departSpeed="0.00" departDelay="5.00" arrival="72.00" arrivalLane="C_to_E_0" arrivalPos="89.60" arrivalSpeed="13.38" duration="19.00" routeLength="194.90" waitingTime="0.00" waitingCount="0" stopTime="0.00" timeLoss="4.06" rerouteNo="0" devices="tripinfo_flow_WE.4" vType="car" speedFactor="1.00" vaporized=""/>
    <tripinfo id="flow_EW.3" depart="41.00" departLane="E_to_C_0" departPos="5.10" departSpeed="0.00" departDelay="5.00" arrival="75.00" arrivalLane="C_to_W_0" arrivalPos="89.60" arrivalSpeed="13.75" duration="34.00" routeLength="194.90" waitingTime="4.00" waitingCount="1" stopTime="0.00" timeLoss="19.62" rerouteNo="0" devices="tripinfo_flow_EW.3" vType="car" speedFactor="1.03" vaporized=""/>
    <tripinfo id="flow_ES.1" depart="15.00" departLane="E_to_C_0" departPos="5.10" departSpeed="0.00" departDelay="3.00" arrival="77.00" arrivalLane="C_to_S_1" arrivalPos="89.60" arrivalSpeed="12.54" duration="62.00" routeLength="193.45" waitingTime="28.00" waitingCount="3" stopTime="0.00" timeLoss="45.47" rerouteNo="0" devices="tripinfo_flow_ES.1" vType="car" speedFactor="0.93" vaporized=""/>
    <tripinfo id="flow_ES.2" depart="27.00" departLane="E_to_C_0" departPos="5.10" departSpeed="0.00" departDelay="3.00" arrival="79.00" arrivalLane="C_to_S_1" arrivalPos="89.60" arrivalSpeed="12.46" duration="52.00" routeLength="193.45" waitingTime="22.00" waitingCount="2" stopTime="0.00" timeLoss="35.84" rerouteNo="0" devices="tripinfo_flow_ES.2" vType="car" speedFactor="0.95" vaporized=""/>
    <tripinfo id="flow_WN.2" depart="24.00" departLane="W_to_C_0" departPos="5.10" departSpeed="0.00" departDelay="0.00" arrival="80.00" arrivalLane="C_to_N_1" arrivalPos="89.60" arrivalSpeed="12.86" duration="56.00" routeLength="193.45" waitingTime="22.00" waitingCount="3" stopTime="0.00" timeLoss="39.86" rerouteNo="0" devices="tripinfo_flow_WN.2" vType="car" speedFactor="0.93" vaporized=""/>
    <tripinfo id="flow_SN.4" depart="40.00" departLane="S_to_C_0" departPos="5.10" departSpeed="0.00" departDelay="0.00" arrival="80.00" arrivalLane="C_to_N_0" arrivalPos="89.60" arrivalSpeed="14.08" duration="40.00" routeLength="194.90" waitingTime="20.00" waitingCount="1" stopTime="0.00" timeLoss="26.75" rerouteNo="0" devices="tripinfo_flow_SN.4" vType="car" speedFactor="1.09" vaporized=""/>
    <tripinfo id="flow_NS.4" depart="40.00" departLane="N_to_C_0" departPos="5.10" departSpeed="0.00" departDelay="0.00" arrival="82.00" arrivalLane="C_to_S_0" arrivalPos="89.60" arrivalSpeed="13.89" duration="42.00" routeLength="194.90" waitingTime="20.00" waitingCount="1" stopTime="0.00" timeLoss="27.83" rerouteNo="0" devices="tripinfo_flow_NS.4" vType="car" speedFactor="1.04" vaporized=""/>
    <tripinfo id="flow_SE.3" depart="45.00" departLane="S_to_C_0" departPos="5.10" departSpeed="0.00" departDelay="0.00" arrival="84.00" arrivalLane="C_to_E_0" arrivalPos="89.60" arrivalSpeed="11.58" duration="39.00" routeLength="183.13" waitingTime="14.00" waitingCount="1" stopTime="0.00" timeLoss="22.58" rerouteNo="0" devices="tripinfo_flow_SE.3" vType="car" speedFactor="0.88" vaporized=""/>
    <tripinfo id="flow_SN.6" depart="60.00" departLane="S_to_C_0" departPos="5.10" departSpeed="0.00" departDelay="0.00" arrival="84.00" arrivalLane="C_to_N_0" arrivalPos="89.60" arrivalSpeed="15.42" duration="24.00" routeLength="194.90" waitingTime="0.00" waitingCount="0" stopTime="0.00" timeLoss="11.23" rerouteNo="0" devices="tripinfo_flow_SN.6" vType="car" speedFactor="1.12" vaporized=""/>
    <tripinfo id="flow_NW.3" depart="47.00" departLane="N_to_C_0" departPos="5.10" departSpeed="0.00" departDelay="2.00" arrival="85.00" arrivalLane="C_to_W_0" arrivalPos="89.60" arrivalSpeed="11.99" duration="38.00" routeLength="183.13" waitingTime="13.00" waitingCount="1" stopTime="0.00" timeLoss="21.97" rerouteNo="0" devices="tripinfo_flow_NW.3" vType="car" speedFactor="0.90" vaporized=""/>
    <tripinfo id="flow_NS.6" depart="60.00" departLane="N_to_C_0" departPos="5.10" departSpeed="0.00" departDelay="0.00" arrival="87.00" arrivalLane="C_to_S_0" arrivalPos="89.60" arrivalSpeed="13.96" duration="27.00" routeLength="194.90" waitingTime="2.00" waitingCount="1" stopTime="0.00" timeLoss="12.84" rerouteNo="0" devices="tripinfo_flow_NS.6" vType="car" speedFactor="1.02" vaporized=""/>
    <tripinfo id="flow_NW.4" depart="65.00" departLane="N_to_C_0" departPos="5.10" departSpeed="0.00" departDelay="5.00" arrival="88.00" arrivalLane="C_to_W_0" arrivalPos="89.60" arrivalSpeed="14.17" duration="23.00" routeLength="183.13" waitingTime="0.00" waitingCount="0" stopTime="0.00" timeLoss="10.23" rerouteNo="0" devices="tripinfo_flow_NW.4" vType="car" speedFactor="1.08" vaporized=""/>
    <tripinfo id="flow_SE.4" depart="63.00" departLane="S_to_C_0" departPos="5.10" departSpeed="0.00" departDelay="3.00" arrival="88.00" arrivalLane="C_to_E_0" arrivalPos="89.60" arrivalSpeed="13.43" duration="25.00" routeLength="183.13" waitingTime="0.00" waitingCount="0" stopTime="0.00" timeLoss="10.26" rerouteNo="0" devices="tripinfo_flow_SE.4" vType="car" speedFactor="1.02" vaporized=""/>
    <tripinfo id="flow_SN.7" depart="70.00" departLane="S_to_C_0" departPos="5.10" departSpeed="0.00" departDelay="0.00" arrival="89.00" arrivalLane="C_to_N_0" arrivalPos="89.60" arrivalSpeed="12.86" duration="19.00" routeLength="194.90" waitingTime="0.00" waitingCount="0" stopTime="0.00" timeLoss="4.56" rerouteNo="0" devices="tripinfo_flow_SN.7" vType="car" speedFactor="0.97" vaporized=""/>
    <tripinfo id="flow_SW.3" depart="48.00" departLane="S_to_C_0" departPos="5.10" departSpeed="0.00" departDelay="3.00" arrival="92.00" arrivalLane="C_to_W_1" arrivalPos="89.60" arrivalSpeed="11.26" duration="44.00" routeLength="193.45" waitingTime="16.00" waitingCount="2" stopTime="0.00" timeLoss="26.44" rerouteNo="0" devices="tripinfo_flow_SW.3" vType="car" speedFactor="0.85" vaporized=""/>
    <tripinfo id="flow_SN.5" depart="50.00" departLane="S_to_C_0" departPos="5.10" departSpeed="0.00" departDelay="0.00" arrival="92.00" arrivalLane="C_to_N_0" arrivalPos="89.60" arrivalSpeed="15.33" duration="42.00" routeLength="194.90" waitingTime="14.00" waitingCount="2" stopTime="0.00" timeLoss="29.33" rerouteNo="0" devices="tripinfo_flow_SN.5" vType="car" speedFactor="1.14" vaporized=""/>
    <tripinfo id="flow_NS.5" depart="50.00" departLane="N_to_C_0" departPos="5.10" departSpeed="0.00" departDelay="0.00" arrival="95.00" arrivalLane="C_to_S_0" arrivalPos="89.60" arrivalSpeed="12.34" duration="45.00" routeLength="194.90" waitingTime="16.00" waitingCount="2" stopTime="0.00" timeLoss="28.64" rerouteNo="0" devices="tripinfo_flow_NS.5" vType="car" speedFactor="0.90" vaporized=""/>
    <tripinfo id="flow_SE.5" depart="75.00" departLane="S_to_C_0" departPos="5.10" departSpeed="0.00" departDelay="0.00" arrival="95.00" arrivalLane="C_to_E_0" arrivalPos="89.60" arrivalSpeed="13.21" duration="20.00" routeLength="183.13" waitingTime="0.00" waitingCount="0" stopTime="0.00" timeLoss="6.35" rerouteNo="0" devices="tripinfo_flow_SE.5" vType="car" speedFactor="1.03" vaporized=""/>
    <tripinfo id="flow_NW.5" depart="77.00" departLane="N_to_C_0" departPos="5.10" departSpeed="0.00" departDelay="2.00" arrival="96.00" arrivalLane="C_to_W_0" arrivalPos="89.60" arrivalSpeed="14.41" duration="19.00" routeLength="183.13" waitingTime="0.00" waitingCount="0" stopTime="0.00" timeLoss="5.53" rerouteNo="0" devices="tripinfo_flow_NW.5" vType="car" speedFactor="1.09" vaporized=""/>
    <tripinfo id="flow_NE.3" depart="45.00" departLane="N_to_C_0" departPos="5.10" departSpeed="0.00" departDelay="0.00" arrival="97.00" arrivalLane="C_to_E_1" arrivalPos="89.60" arrivalSpeed="12.96" duration="52.00" routeLength="193.45" waitingTime="26.00" waitingCount="2" stopTime="0.00" timeLoss="37.17" rerouteNo="0" devices="tripinfo_flow_NE.3" vType="car" speedFactor="1.00" vaporized=""/>
    <tripinfo id="flow_NS.8" depart="80.00" departLane="N_to_C_0" departPos="5.10" departSpeed="0.00" departDelay="0.00" arrival="98.00" arrivalLane="C_to_S_0" arrivalPos="89.60" arrivalSpeed="14.10" duration="18.00" routeLength="194.90" waitingTime="0.00" waitingCount="0" stopTime="0.00" timeLoss="4.06" rerouteNo="0" devices="tripinfo_flow_NS.8" vType="car" speedFactor="1.02" vaporized=""/>
    <tripinfo id="flow_SN.8" depart="80.00" departLane="S_to_C_0" departPos="5.10" departSpeed="0.00" departDelay="0.00" arrival="99.00" arrivalLane="C_to_N_0" arrivalPos="89.60" arrivalSpeed="12.40" duration="19.00" routeLength="194.90" waitingTime="0.00" waitingCount="0" stopTime="0.00" timeLoss="4.33" rerouteNo="0" devices="tripinfo_flow_SN.8" vType="car" speedFactor="0.97" vaporized=""/>
    <tripinfo id="flow_NS.7" depart="70.00" departLane="N_to_C_0" departPos="5.10" departSpeed="0.00" departDelay="0.00" arrival="102.00" arrivalLane="C_to_S_0" arrivalPos="89.60" arrivalSpeed="13.15" duration="32.00" routeLength="194.90" waitingTime="3.00" waitingCount="2" stopTime="0.00" timeLoss="18.02" rerouteNo="0" devices="tripinfo_flow_NS.7" vType="car" speedFactor="1.02" vaporized=""/>
    <tripinfo id="flow_NE.4" depart="63.00" departLane="N_to_C_0" departPos="5.10" departSpeed="0.00" departDelay="3.00" arrival="103.00" arrivalLane="C_to_E_1" arrivalPos="89.60" arrivalSpeed="12.23" duration="40.00" routeLength="193.45" waitingTime="9.00" waitingCount="3" stopTime="0.00" timeLoss="24.95" rerouteNo="0" devices="tripinfo_flow_NE.4" vType="car" speedFactor="0.97" vaporized=""/>
    <tripinfo id="flow_EN.5" depart="60.00" departLane="E_to_C_0" departPos="5.10" departSpeed="0.00" departDelay="0.00" arrival="110.00" arrivalLane="C_to_N_0" arrivalPos="89.60" arrivalSpeed="12.16" duration="50.00" routeLength="183.13" waitingTime="28.00" waitingCount="1" stopTime="0.00" timeLoss="35.28" rerouteNo="0" devices="tripinfo_flow_EN.5" vType="car" speedFactor="0.94" vaporized=""/>
    <tripinfo id="flow_WS.5" depart="62.00" departLane="W_to_C_0" departPos="5.10" departSpeed="0.00" departDelay="2.00" arrival="110.00" arrivalLane="C_to_S_0" arrivalPos="89.60" arrivalSpeed="14.28" duration="48.00" routeLength="183.13" waitingTime="26.00" waitingCount="1" stopTime="0.00" timeLoss="34.44" rerouteNo="0" devices="tripinfo_flow_WS.5" vType="car" speedFactor="1.04" vaporized=""/>
    <tripinfo id="flow_SW.4" depart="66.00" departLane="S_to_C_0" departPos="5.10" departSpeed="0.00" departDelay="6.00" arrival="111.00" arrivalLane="C_to_W_1" arrivalPos="89.60" arrivalSpeed="10.75" duration="45.00" routeLength="193.45" waitingTime="17.00" waitingCount="2" stopTime="0.00" timeLoss="29.98" rerouteNo="0" devices="tripinfo_flow_SW.4" vType="car" speedFactor="0.99" vaporized=""/>
    <tripinfo id="flow_NE.5" depart="75.00" departLane="N_to_C_0" departPos="5.10" departSpeed="0.00" departDelay="0.00" arrival="111.00" arrivalLane="C_to_E_1" arrivalPos="89.60" arrivalSpeed="13.34" duration="36.00" routeLength="193.45" waitingTime="2.00" waitingCount="1" stopTime="0.00" timeLoss="21.13" rerouteNo="0" devices="tripinfo_flow_NE.5" vType="car" speedFactor="1.01" vaporized=""/>
    <tripinfo id="flow_WE.5" depart="65.00" departLane="W_to_C_0" departPos="5.10" departSpeed="0.00" departDelay="5.00" arrival="113.00" arrivalLane="C_to_E_0" arrivalPos="89.60" arrivalSpeed="13.06" duration="48.00" routeLength="194.90" waitingTime="24.00" waitingCount="1" stopTime="0.00" timeLoss="34.14" rerouteNo="0" devices="tripinfo_flow_WE.5" vType="car" speedFactor="1.02" vaporized=""/>
    <tripinfo id="flow_WN.3" depart="36.00" departLane="W_to_C_0" departPos="5.10" departSpeed="0.00" departDelay="0.00" arrival="115.00" arrivalLane="C_to_N_1" arrivalPos="89.60" arrivalSpeed="13.18" duration="79.00" routeLength="193.45" waitingTime="42.00" waitingCount="5" stopTime="0.00" timeLoss="63.66" rerouteNo="0" devices="tripinfo_flow_WN.3" vType="car" speedFactor="0.96" vaporized=""/>
    <tripinfo id="flow_WS.6" depart="73.00" departLane="W_to_C_0" departPos="5.10" departSpeed="0.00" departDelay="1.00" arrival="116.00" arrivalLane="C_to_S_0" arrivalPos="89.60" arrivalSpeed="14.22" duration="43.00" routeLength="183.13" waitingTime="19.00" waitingCount="1" stopTime="0.00" timeLoss="28.50" rerouteNo="0" devices="tripinfo_flow_WS.6" vType="car" speedFactor="1.03" vaporized=""/>
    <tripinfo id="flow_WE.6" depart="76.00" departLane="W_to_C_0" departPos="5.10" departSpeed="0.00" departDelay="4.00" arrival="118.00" arrivalLane="C_to_E_0" arrivalPos="89.60" arrivalSpeed="12.48" duration="42.00" routeLength="194.90" waitingTime="15.00" waitingCount="1" stopTime="0.00" timeLoss="27.39" rerouteNo="0" devices="tripinfo_flow_WE.6" vType="car" speedFactor="0.98" vaporized=""/>