<?xml version="1.0" encoding="UTF-8"?>

<!-- generated on 2025-09-05 22:58:02 by Eclipse SUMO sumo Version 1.24.0
<sumoConfiguration xmlns:xsi="http://www.w3.org/2001/XMLSchema-instance" xsi:noNamespaceSchemaLocation="http://sumo.dlr.de/xsd/sumoConfiguration.xsd">

    <input>
        <net-file value="intersection.net.xml"/>
        <route-files value="intersection.rou.xml"/>
    </input>

    <output>
        <tripinfo-output value="tripinfo.xml"/>
    </output>

    <time>
        <begin value="0"/>
        <end value="3600"/>
    </time>

    <traci_server>
        <remote-port value="50069"/>
    </traci_server>

</sumoConfiguration>
-->

<tripinfos xmlns:xsi="http://www.w3.org/2001/XMLSchema-instance" xsi:noNamespaceSchemaLocation="http://sumo.dlr.de/xsd/tripinfo_file.xsd">
    <tripinfo id="flow_SN.0" depart="0.00" departLane="S_to_C_0" departPos="5.10" departSpeed="0.00" departDelay="0.00" arrival="17.00" arrivalLane="C_to_N_0" arrivalPos="89.60" arrivalSpeed="14.18" duration="17.00" routeLength="194.90" waitingTime="0.00" waitingCount="0" stopTime="0.00" timeLoss="3.99" rerouteNo="0" devices="tripinfo_flow_SN.0" vType="car" speedFactor="1.08" vaporized=""/>
    <tripinfo id="flow_NS.0" depart="0.00" departLane="N_to_C_0" departPos="5.10" departSpeed="0.00" departDelay="0.00" arrival="18.00" arrivalLane="C_to_S_0" arrivalPos="89.60" arrivalSpeed="14.27" duration="18.00" routeLength="194.90" waitingTime="0.00" waitingCount="0" stopTime="0.00" timeLoss="4.23" rerouteNo="0" devices="tripinfo_flow_NS.0" vType="car" speedFactor="1.06" vaporized=""/>
    <tripinfo id="flow_SE.0" depart="3.00" departLane="S_to_C_0" departPos="5.10" departSpeed="0.00" departDelay="3.00" arrival="23.00" arrivalLane="C_to_E_0" arrivalPos="89.60" arrivalSpeed="13.94" duration="20.00" routeLength="183.13" waitingTime="0.00" waitingCount="0" stopTime="0.00" timeLoss="5.43" rerouteNo="0" devices="tripinfo_flow_SE.0" vType="car" speedFactor="1.03" vaporized=""/>
    <tripinfo id="flow_NE.0" depart="3.00" departLane="N_to_C_0" departPos="5.10" departSpeed="0.00" departDelay="3.00" arrival="24.00" arrivalLane="C_to_E_1" arrivalPos="89.60" arrivalSpeed="12.63" duration="21.00" routeLength="193.45" waitingTime="0.00" waitingCount="0" stopTime="0.00" timeLoss="5.05" rerouteNo="0" devices="tripinfo_flow_NE.0" vType="car" speedFactor="0.94" vaporized=""/>
    <tripinfo id="flow_NW.0" depart="6.00" departLane="N_to_C_0" departPos="5.10" departSpeed="0.00" departDelay="6.00" arrival="26.00" arrivalLane="C_to_W_0" arrivalPos="89.60" arrivalSpeed="12.75" duration="20.00" routeLength="183.13" waitingTime="0.00" waitingCount="0" stopTime="0.00" timeLoss="5.94" rerouteNo="0" devices="tripinfo_flow_NW.0" vType="car" speedFactor="1.01" vaporized=""/>
    <tripinfo id="flow_SN.1" depart="10.00" departLane="S_to_C_0" departPos="5.10" departSpeed="0.00" departDelay="0.00" arrival="27.00" arrivalLane="C_to_N_0" arrivalPos="89.60" arrivalSpeed="15.44" duration="17.00" routeLength="194.90" waitingTime="0.00" waitingCount="0" stopTime="0.00" timeLoss="3.64" rerouteNo="0" devices="tripinfo_flow_SN.1" vType="car" speedFactor="1.12" vaporized=""/>
    <tripinfo id="flow_NS.1" depart="10.00" departLane="N_to_C_0" departPos="5.10" departSpeed="0.00" departDelay="0.00" arrival="28.00" arrivalLane="C_to_S_0" arrivalPos="89.60" arrivalSpeed="13.37" duration="18.00" routeLength="194.90" waitingTime="0.00" waitingCount="0" stopTime="0.00" timeLoss="3.82" rerouteNo="0" devices="tripinfo_flow_NS.1" vType="car" speedFactor="1.05" vaporized=""/>
    <tripinfo id="flow_SW.0" depart="6.00" departLane="S_to_C_0" departPos="5.10" departSpeed="0.00" departDelay="6.00" arrival="34.00" arrivalLane="C_to_W_1" arrivalPos="89.60" arrivalSpeed="11.21" duration="28.00" routeLength="193.45" waitingTime="2.00" waitingCount="1" stopTime="0.00" timeLoss="9.95" rerouteNo="0" devices="tripinfo_flow_SW.0" vType="car" speedFactor="0.83" vaporized=""/>
    <tripinfo id="flow_NE.1" depart="15.00" departLane="N_to_C_0" departPos="5.10" departSpeed="0.00" departDelay="0.00" arrival="35.00" arrivalLane="C_to_E_1" arrivalPos="89.60" arrivalSpeed="12.95" duration="20.00" routeLength="193.45" waitingTime="0.00" waitingCount="0" stopTime="0.00" timeLoss="4.94" rerouteNo="0" devices="tripinfo_flow_NE.1" vType="car" speedFactor="1.02" vaporized=""/>
    <tripinfo id="flow_SE.1" depart="15.00" departLane="S_to_C_0" departPos="5.10" departSpeed="0.00" departDelay="0.00" arrival="35.00" arrivalLane="C_to_E_0" arrivalPos="89.60" arrivalSpeed="12.51" duration="20.00" routeLength="183.13" waitingTime="0.00" waitingCount="0" stopTime="0.00" timeLoss="5.58" rerouteNo="0" devices="tripinfo_flow_SE.1" vType="car" speedFactor="0.97" vaporized=""/>
    <tripinfo id="flow_NW.1" depart="17.00" departLane="N_to_C_0" departPos="5.10" departSpeed="0.00" departDelay="2.00" arrival="37.00" arrivalLane="C_to_W_0" arrivalPos="89.60" arrivalSpeed="12.75" duration="20.00" routeLength="183.13" waitingTime="0.00" waitingCount="0" stopTime="0.00" timeLoss="5.82" rerouteNo="0" devices="tripinfo_flow_NW.1" vType="car" speedFactor="1.01" vaporized=""/>
    <tripinfo id="flow_WS.0" depart="2.00" departLane="W_to_C_0" departPos="5.10" departSpeed="0.00" departDelay="2.00" arrival="39.00" arrivalLane="C_to_S_0" arrivalPos="89.60" arrivalSpeed="14.06" duration="37.00" routeLength="183.13" waitingTime="14.00" waitingCount="1" stopTime="0.00" timeLoss="24.37" rerouteNo="0" devices="tripinfo_flow_WS.0" vType="car" speedFactor="1.09" vaporized=""/>
    <tripinfo id="flow_EN.0" depart="0.00" departLane="E_to_C_0" departPos="5.10" departSpeed="0.00" departDelay="0.00" arrival="40.00" arrivalLane="C_to_N_0" arrivalPos="89.60" arrivalSpeed="14.52" duration="40.00" routeLength="183.13" waitingTime="16.00" waitingCount="1" stopTime="0.00" timeLoss="25.99" rerouteNo="0" devices="tripinfo_flow_EN.0" vType="car" speedFactor="1.05" vaporized=""/>
    <tripinfo id="flow_SW.1" depart="18.00" departLane="S_to_C_0" departPos="5.10" departSpeed="0.00" departDelay="3.00" arrival="40.00" arrivalLane="C_to_W_1" arrivalPos="89.60" arrivalSpeed="11.65" duration="22.00" routeLength="193.45" waitingTime="0.00" waitingCount="0" stopTime="0.00" timeLoss="4.57" rerouteNo="0" devices="tripinfo_flow_SW.1" vType="car" speedFactor="0.89" vaporized=""/>
    <tripinfo id="flow_WE.0" depart="5.00" departLane="W_to_C_0" departPos="5.10" departSpeed="0.00" departDelay="5.00" arrival="42.00" arrivalLane="C_to_E_0" arrivalPos="89.60" arrivalSpeed="13.68" duration="37.00" routeLength="194.90" waitingTime="13.00" waitingCount="1" stopTime="0.00" timeLoss="22.83" rerouteNo="0" devices="tripinfo_flow_WE.0" vType="car" speedFactor="1.03" vaporized=""/>
    <tripinfo id="flow_EW.0" depart="5.00" departLane="E_to_C_0" departPos="5.10" departSpeed="0.00" departDelay="5.00" arrival="43.00" arrivalLane="C_to_W_0" arrivalPos="89.60" arrivalSpeed="12.71" duration="38.00" routeLength="194.90" waitingTime="14.00" waitingCount="1" stopTime="0.00" timeLoss="22.18" rerouteNo="0" devices="tripinfo_flow_EW.0" vType="car" speedFactor="0.94" vaporized=""/>
    <tripinfo id="flow_EN.1" depart="12.00" departLane="E_to_C_0" departPos="5.10" departSpeed="0.00" departDelay="0.00" arrival="45.00" arrivalLane="C_to_N_0" arrivalPos="89.60" arrivalSpeed="12.51" duration="33.00" routeLength="183.13" waitingTime="10.00" waitingCount="1" stopTime="0.00" timeLoss="18.64" rerouteNo="0" devices="tripinfo_flow_EN.1" vType="car" speedFactor="0.99" vaporized=""/>
    <tripinfo id="flow_WS.1" depart="14.00" departLane="W_to_C_0" departPos="5.10" departSpeed="0.00" departDelay="2.00" arrival="45.00" arrivalLane="C_to_S_0" arrivalPos="89.60" arrivalSpeed="12.66" duration="31.00" routeLength="183.13" waitingTime="6.00" waitingCount="1" stopTime="0.00" timeLoss="15.89" rerouteNo="0" devices="tripinfo_flow_WS.1" vType="car" speedFactor="0.94" vaporized=""/>
    <tripinfo id="flow_WN.0" depart="0.00" departLane="W_to_C_0" departPos="5.10" departSpeed="0.00" departDelay="0.00" arrival="47.00" arrivalLane="C_to_N_1" arrivalPos="89.60" arrivalSpeed="11.43" duration="47.00" routeLength="193.45" waitingTime="20.00" waitingCount="2" stopTime="0.00" timeLoss="29.84" rerouteNo="0" devices="tripinfo_flow_WN.0" vType="car" speedFactor="0.86" vaporized=""/>
    <tripinfo id="flow_WS.2" depart="25.00" departLane="W_to_C_0" departPos="5.10" departSpeed="0.00" departDelay="1.00" arrival="47.00" arrivalLane="C_to_S_0" arrivalPos="89.60" arrivalSpeed="15.16" duration="22.00" routeLength="183.13" waitingTime="0.00" waitingCount="0" stopTime="0.00" timeLoss="9.64" rerouteNo="0" devices="tripinfo_flow_WS.2" vType="car" speedFactor="1.18" vaporized=""/>
    <tripinfo id="flow_EN.2" depart="24.00" departLane="E_to_C_0" departPos="5.10" departSpeed="0.00" departDelay="0.00" arrival="48.00" arrivalLane="C_to_N_0" arrivalPos="89.60" arrivalSpeed="11.95" duration="24.00" routeLength="183.13" waitingTime="0.00" waitingCount="0" stopTime="0.00" timeLoss="8.51" rerouteNo="0" devices="tripinfo_flow_EN.2" vType="car" speedFactor="0.92" vaporized=""/>
    <tripinfo id="flow_EW.2" depart="28.00" departLane="E_to_C_0" departPos="5.10" departSpeed="0.00" departDelay="4.00" arrival="49.00" arrivalLane="C_to_W_0" arrivalPos="89.60" arrivalSpeed="15.69" duration="21.00" routeLength="194.90" waitingTime="0.00" waitingCount="0" stopTime="0.00" timeLoss="8.01" rerouteNo="0" devices="tripinfo_flow_EW.2" vType="car" speedFactor="1.13" vaporized=""/>
    <tripinfo id="flow_WE.2" depart="28.00" departLane="W_to_C_0" departPos="5.10" departSpeed="0.00" departDelay="4.00" arrival="49.00" arrivalLane="C_to_E_0" arrivalPos="89.60" arrivalSpeed="14.77" duration="21.00" routeLength="194.90" waitingTime="0.00" waitingCount="0" stopTime="0.00" timeLoss="8.23" rerouteNo="0" devices="tripinfo_flow_WE.2" vType="car" speedFactor="1.15" vaporized=""/>
    <tripinfo id="flow_ES.0" depart="3.00" departLane="E_to_C_0" departPos="5.10" departSpeed="0.00" departDelay="3.00" arrival="54.00" arrivalLane="C_to_S_1" arrivalPos="89.60" arrivalSpeed="11.67" duration="51.00" routeLength="193.45" waitingTime="23.00" waitingCount="2" stopTime="0.00" timeLoss="34.62" rerouteNo="0" devices="tripinfo_flow_ES.0" vType="car" speedFactor="0.89" vaporized=""/>
    <tripinfo id="flow_EW.1" depart="17.00" departLane="E_to_C_0" departPos="5.10" departSpeed="0.00" departDelay="5.00" arrival="54.00" arrivalLane="C_to_W_0" arrivalPos="89.60" arrivalSpeed="12.17" duration="37.00" routeLength="194.90" waitingTime="8.00" waitingCount="2" stopTime="0.00" timeLoss="20.97" rerouteNo="0" devices="tripinfo_flow_EW.1" vType="car" speedFactor="0.88" vaporized=""/>
    <tripinfo id="flow_WE.1" depart="17.00" departLane="W_to_C_0" departPos="5.10" departSpeed="0.00" departDelay="5.00" arrival="56.00" arrivalLane="C_to_E_0" arrivalPos="89.60" arrivalSpeed="15.77" duration="39.00" routeLength="194.90" waitingTime="3.00" waitingCount="1" stopTime="0.00" timeLoss="26.31" rerouteNo="0" devices="tripinfo_flow_WE.1" vType="car" speedFactor="1.16" vaporized=""/>
    <tripinfo id="flow_EN.3" depart="36.00" departLane="E_to_C_0" departPos="5.10" departSpeed="0.00" departDelay="0.00" arrival="56.00" arrivalLane="C_to_N_0" arrivalPos="89.60" arrivalSpeed="15.12" duration="20.00" routeLength="183.13" waitingTime="0.00" waitingCount="0" stopTime="0.00" timeLoss="6.82" rerouteNo="0" devices="tripinfo_flow_EN.3" vType="car" speedFactor="1.10" vaporized=""/>
    <tripinfo id="flow_WS.3" depart="38.00" departLane="W_to_C_0" departPos="5.10" departSpeed="0.00" departDelay="2.00" arrival="57.00" arrivalLane="C_to_S_0" arrivalPos="89.60" arrivalSpeed="14.02" duration="19.00" routeLength="183.13" waitingTime="0.00" waitingCount="0" stopTime="0.00" timeLoss="6.39" rerouteNo="0" devices="tripinfo_flow_WS.3" vType="car" speedFactor="1.09" vaporized=""/>
    <tripinfo id="flow_EW.3" depart="41.00" departLane="E_to_C_0" departPos="5.10" departSpeed="0.00" departDelay="5.00" arrival="58.00" arrivalLane="C_to_W_0" arrivalPos="89.60" arrivalSpeed="13.02" duration="17.00" routeLength="194.90" waitingTime="0.00" waitingCount="0" stopTime="0.00" timeLoss="3.38" rerouteNo="0" devices="tripinfo_flow_EW.3" vType="car" speedFactor="1.03" vaporized=""/>
    <tripinfo id="flow_WE.3" depart="41.00" departLane="W_to_C_0" departPos="5.10" departSpeed="0.00" departDelay="5.00" arrival="60.00" arrivalLane="C_to_E_0" arrivalPos="89.60" arrivalSpeed="14.08" duration="19.00" routeLength="194.90" waitingTime="0.00" waitingCount="0" stopTime="0.00" timeLoss="4.80" rerouteNo="0" devices="tripinfo_flow_WE.3" vType="car" speedFactor="1.04" vaporized=""/>
    <tripinfo id="flow_WN.1" depart="12.00" departLane="W_to_C_0" departPos="5.10" departSpeed="0.00" departDelay="0.00" arrival="64.00" arrivalLane="C_to_N_1" arrivalPos="89.60" arrivalSpeed="13.00" duration="52.00" routeLength="193.45" waitingTime="19.00" waitingCount="3" stopTime="0.00" timeLoss="35.62" rerouteNo="0" devices="tripinfo_flow_WN.1" vType="car" speedFactor="0.94" vaporized=""/>
    <tripinfo id="flow_ES.1" depart="15.00" departLane="E_to_C_0" departPos="5.10" departSpeed="0.00" departDelay="3.00" arrival="65.00" arrivalLane="C_to_S_1" arrivalPos="89.60" arrivalSpeed="11.64" duration="50.00" routeLength="193.45" waitingTime="20.00" waitingCount="3" stopTime="0.00" timeLoss="33.33" rerouteNo="0" devices="tripinfo_flow_ES.1" vType="car" speedFactor="0.93" vaporized=""/>
    <tripinfo id="flow_WN.2" depart="24.00" departLane="W_to_C_0" departPos="5.10" departSpeed="0.00" departDelay="0.00" arrival="66.00" arrivalLane="C_to_N_1" arrivalPos="89.60" arrivalSpeed="11.76" duration="42.00" routeLength="193.45" waitingTime="6.00" waitingCount="1" stopTime="0.00" timeLoss="25.56" rerouteNo="0" devices="tripinfo_flow_WN.2" vType="car" speedFactor="0.93" vaporized=""/>
    <tripinfo id="flow_ES.2" depart="27.00" departLane="E_to_C_0" departPos="5.10" departSpeed="0.00" departDelay="3.00" arrival="67.00" arrivalLane="C_to_S_1" arrivalPos="89.60" arrivalSpeed="12.87" duration="40.00" routeLength="193.45" waitingTime="9.00" waitingCount="2" stopTime="0.00" timeLoss="23.97" rerouteNo="0" devices="tripinfo_flow_ES.2" vType="car" speedFactor="0.95" vaporized=""/>
    <tripinfo id="flow_WN.3" depart="36.00" departLane="W_to_C_0" departPos="5.10" departSpeed="0.00" departDelay="0.00" arrival="68.00" arrivalLane="C_to_N_1" arrivalPos="89.60" arrivalSpeed="12.41" duration="32.00" routeLength="193.45" waitingTime="5.00" waitingCount="1" stopTime="0.00" timeLoss="16.53" rerouteNo="0" devices="tripinfo_flow_WN.3" vType="car" speedFactor="0.96" vaporized=""/>
    <tripinfo id="flow_ES.3" depart="39.00" departLane="E_to_C_0" departPos="5.10" departSpeed="0.00" departDelay="3.00" arrival="70.00" arrivalLane="C_to_S_1" arrivalPos="89.60" arrivalSpeed="11.79" duration="31.00" routeLength="193.45" waitingTime="4.00" waitingCount="1" stopTime="0.00" timeLoss="13.90" rerouteNo="0" devices="tripinfo_flow_ES.3" vType="car" speedFactor="0.90" vaporized=""/>
    <tripinfo id="flow_EN.4" depart="48.00" departLane="E_to_C_0" departPos="5.10" departSpeed="0.00" departDelay="0.00" arrival="70.00" arrivalLane="C_to_N_0" arrivalPos="89.60" arrivalSpeed="11.66" duration="22.00" routeLength="183.13" waitingTime="0.00" waitingCount="0" stopTime="0.00" timeLoss="4.71" rerouteNo="0" devices="tripinfo_flow_EN.4" vType="car" speedFactor="0.85" vaporized=""/>
    <tripinfo id="flow_SN.3" depart="30.00" departLane="S_to_C_0" departPos="5.10" departSpeed="0.00" departDelay="0.00" arrival="71.00" arrivalLane="C_to_N_1" arrivalPos="89.60" arrivalSpeed="13.14" duration="41.00" routeLength="194.90" waitingTime="15.00" waitingCount="1" stopTime="0.00" timeLoss="26.49" rerouteNo="0" devices="tripinfo_flow_SN.3" vType="car" speedFactor="1.02" vaporized=""/>
    <tripinfo id="flow_NS.2" depart="20.00" departLane="N_to_C_0" departPos="5.10" departSpeed="0.00" departDelay="0.00" arrival="72.00" arrivalLane="C_to_S_0" arrivalPos="89.60" arrivalSpeed="10.33" duration="52.00" routeLength="194.90" waitingTime="27.00" waitingCount="1" stopTime="0.00" timeLoss="34.95" rerouteNo="0" devices="tripinfo_flow_NS.2" vType="car" speedFactor="0.83" vaporized=""/>
    <tripinfo id="flow_SN.2" depart="20.00" departLane="S_to_C_0" departPos="5.10" departSpeed="0.00" departDelay="0.00" arrival="72.00" arrivalLane="C_to_N_0" arrivalPos="89.60" arrivalSpeed="11.93" duration="52.00" routeLength="194.90" waitingTime="27.00" waitingCount="1" stopTime="0.00" timeLoss="35.14" rerouteNo="0" devices="tripinfo_flow_SN.2" vType="car" speedFactor="0.87" vaporized=""/>
    <tripinfo id="flow_SE.2" depart="33.00" departLane="S_to_C_0" departPos="5.10" departSpeed="0.00" departDelay="3.00" arrival="73.00" arrivalLane="C_to_E_0" arrivalPos="89.60" arrivalSpeed="13.17" duration="40.00" routeLength="183.13" waitingTime="16.00" waitingCount="1" stopTime="0.00" timeLoss="25.00" rerouteNo="0" devices="tripinfo_flow_SE.2" vType="car" speedFactor="0.97" vaporized=""/>
    <tripinfo id="flow_NS.3" depart="30.00" departLane="N_to_C_0" departPos="5.10" departSpeed="0.00" departDelay="0.00" arrival="74.00" arrivalLane="C_to_S_0" arrivalPos="89.60" arrivalSpeed="13.33" duration="44.00" routeLength="194.90" waitingTime="19.00" waitingCount="1" stopTime="0.00" timeLoss="29.50" rerouteNo="0" devices="tripinfo_flow_NS.3" vType="car" speedFactor="1.01" vaporized=""/>
    <tripinfo id="flow_SN.4" depart="40.00" departLane="S_to_C_0" departPos="5.10" departSpeed="0.00" departDelay="0.00" arrival="74.00" arrivalLane="C_to_N_0" arrivalPos="89.60" arrivalSpeed="14.60" duration="34.00" routeLength="194.90" waitingTime="10.00" waitingCount="1" stopTime="0.00" timeLoss="20.68" rerouteNo="0" devices="tripinfo_flow_SN.4" vType="car" speedFactor="1.09" vaporized=""/>
    <tripinfo id="flow_NW.2" depart="35.00" departLane="N_to_C_0" departPos="5.10" departSpeed="0.00" departDelay="5.00" arrival="75.00" arrivalLane="C_to_W_0" arrivalPos="89.60" arrivalSpeed="13.32" duration="40.00" routeLength="183.13" waitingTime="17.00" waitingCount="1" stopTime="0.00" timeLoss="25.34" rerouteNo="0" devices="tripinfo_flow_NW.2" vType="car" speedFactor="0.99" vaporized=""/>
    <tripinfo id="flow_NW.3" depart="47.00" departLane="N_to_C_0" departPos="5.10" departSpeed="0.00" departDelay="2.00" arrival="78.00" arrivalLane="C_to_W_0" arrivalPos="89.60" arrivalSpeed="12.38" duration="31.00" routeLength="183.13" waitingTime="4.00" waitingCount="1" stopTime="0.00" timeLoss="15.37" rerouteNo="0" devices="tripinfo_flow_NW.3" vType="car" speedFactor="0.90" vaporized=""/>
    <tripinfo id="flow_NE.2" depart="33.00" departLane="N_to_C_0" departPos="5.10" departSpeed="0.00" departDelay="3.00" arrival="79.00" arrivalLane="C_to_E_1" arrivalPos="89.60" arrivalSpeed="16.10" duration="46.00" routeLength="193.45" waitingTime="24.00" waitingCount="2" stopTime="0.00" timeLoss="33.46" rerouteNo="0" devices="tripinfo_flow_NE.2" vType="car" speedFactor="1.17" vaporized=""/>
    <tripinfo id="flow_SW.2" depart="36.00" departLane="S_to_C_0" departPos="5.10" departSpeed="0.00" departDelay="6.00" arrival="79.00" arrivalLane="C_to_W_1" arrivalPos="89.60" arrivalSpeed="15.97" duration="43.00" routeLength="193.45" waitingTime="15.00" waitingCount="2" stopTime="0.00" timeLoss="30.30" rerouteNo="0" devices="tripinfo_flow_SW.2" vType="car" speedFactor="1.18" vaporized=""/>
    <tripinfo id="flow_SE.3" depart="45.00" departLane="S_to_C_0" departPos="5.10" departSpeed="0.00" departDelay="0.00" arrival="79.00" arrivalLane="C_to_E_0" arrivalPos="89.60" arrivalSpeed="11.53" duration="34.00" routeLength="183.13" waitingTime="7.00" waitingCount="1" stopTime="0.00" timeLoss="17.45" rerouteNo="0" devices="tripinfo_flow_SE.3" vType="car" speedFactor="0.88" vaporized=""/>
    <tripinfo id="flow_WS.4" depart="50.00" departLane="W_to_C_0" departPos="5.10" departSpeed="0.00" departDelay="2.00" arrival="80.00" arrivalLane="C_to_S_0" arrivalPos="89.60" arrivalSpeed="13.33" duration="30.00" routeLength="183.13" waitingTime="8.00" waitingCount="1" stopTime="0.00" timeLoss="16.19" rerouteNo="0" devices="tripinfo_flow_WS.4" vType="car" speedFactor="1.00" vaporized=""/>
    <tripinfo id="flow_EW.4" depart="53.00" departLane="E_to_C_0" departPos="5.10" departSpeed="0.00" departDelay="5.00" arrival="81.00" arrivalLane="C_to_W_0" arrivalPos="89.60" arrivalSpeed="13.71" duration="28.00" routeLength="194.90" waitingTime="5.00" waitingCount="1" stopTime="0.00" timeLoss="14.18" rerouteNo="0" devices="tripinfo_flow_EW.4" vType="car" speedFactor="1.02" vaporized=""/>
    <tripinfo id="flow_WE.4" depart="53.00" departLane="W_to_C_0" departPos="5.10" departSpeed="0.00" departDelay="5.00" arrival="83.00" arrivalLane="C_to_E_0" arrivalPos="89.60" arrivalSpeed="13.16" duration="30.00" routeLength="194.90" waitingTime="6.00" waitingCount="1" stopTime="0.00" timeLoss="15.13" rerouteNo="0" devices="tripinfo_flow_WE.4" vType="car" speedFactor="1.00" vaporized=""/>
    <tripinfo id="flow_EN.5" depart="60.00" departLane="E_to_C_0" departPos="5.10" departSpeed="0.00" departDelay="0.00" arrival="83.00" arrivalLane="C_to_N_0" arrivalPos="89.60" arrivalSpeed="12.70" duration="23.00" routeLength="183.13" waitingTime="0.00" waitingCount="0" stopTime="0.00" timeLoss="8.15" rerouteNo="0" devices="tripinfo_flow_EN.5" vType="car" speedFactor="0.94" vaporized=""/>
    <tripinfo id="flow_WS.5" depart="61.00" departLane="W_to_C_0" departPos="5.10" departSpeed="0.00" departDelay="1.00" arrival="84.00" arrivalLane="C_to_S_0" arrivalPos="89.60" arrivalSpeed="14.42" duration="23.00" routeLength="183.13" waitingTime="0.00" waitingCount="0" stopTime="0.00" timeLoss="9.79" rerouteNo="0" devices="tripinfo_flow_WS.5" vType="car" speedFactor="1.04" vaporized=""/>
    <tripinfo id="flow_ES.4" depart="51.00" departLane="E_to_C_0" departPos="5.10" departSpeed="0.00" departDelay="3.00" arrival="86.00" arrivalLane="C_to_S_1" arrivalPos="89.60" arrivalSpeed="15.31" duration="35.00" routeLength="193.45" waitingTime="8.00" waitingCount="2" stopTime="0.00" timeLoss="21.68" rerouteNo="0" devices="tripinfo_flow_ES.4" vType="car" speedFactor="1.17" vaporized=""/>
    <tripinfo id="flow_EW.5" depart="65.00" departLane="E_to_C_0" departPos="5.10" departSpeed="0.00" departDelay="5.00" arrival="86.00" arrivalLane="C_to_W_0" arrivalPos="89.60" arrivalSpeed="12.19" duration="21.00" routeLength="194.90" waitingTime="0.00" waitingCount="0" stopTime="0.00" timeLoss="4.93" rerouteNo="0" devices="tripinfo_flow_EW.5" vType="car" speedFactor="0.91" vaporized=""/>
    <tripinfo id="flow_WN.4" depart="48.00" departLane="W_to_C_0" departPos="5.10" departSpeed="0.00" departDelay="0.00" arrival="89.00" arrivalLane="C_to_N_1" arrivalPos="89.60" arrivalSpeed="14.94" duration="41.00" routeLength="193.45" waitingTime="13.00" waitingCount="2" stopTime="0.00" timeLoss="27.38" rerouteNo="0" devices="tripinfo_flow_WN.4" vType="car" speedFactor="1.10" vaporized=""/>
    <tripinfo id="flow_NS.6" depart="60.00" departLane="N_to_C_0" departPos="5.10" departSpeed="0.00" departDelay="0.00" arrival="91.00" arrivalLane="C_to_S_0" arrivalPos="89.60" arrivalSpeed="14.02" duration="31.00" routeLength="194.90" waitingTime="8.00" waitingCount="1" stopTime="0.00" timeLoss="16.80" rerouteNo="0" devices="tripinfo_flow_NS.6" vType="car" speedFactor="1.02" vaporized=""/>
    <tripinfo id="flow_SN.6" depart="60.00" departLane="S_to_C_0" departPos="5.10" departSpeed="0.00" departDelay="0.00" arrival="91.00" arrivalLane="C_to_N_0" arrivalPos="89.60" arrivalSpeed="15.42" duration="31.00" routeLength="194.90" waitingTime="8.00" waitingCount="1" stopTime="0.00" timeLoss="18.42" rerouteNo="0" devices="tripinfo_flow_SN.6" vType="car" speedFactor="1.12" vaporized=""/>
    <tripinfo id="flow_ES.5" depart="63.00" departLane="E_to_C_0" departPos="5.10" departSpeed="0.00" departDelay="3.00" arrival="91.00" arrivalLane="C_to_S_1" arrivalPos="89.60" arrivalSpeed="11.38" duration="28.00" routeLength="193.45" waitingTime="0.00" waitingCount="0" stopTime="0.00" timeLoss="10.83" rerouteNo="0" devices="tripinfo_flow_ES.5" vType="car" speedFactor="0.88" vaporized=""/>
    <tripinfo id="flow_NS.4" depart="40.00" departLane="N_to_C_0" departPos="5.10" departSpeed="0.00" departDelay="0.00" arrival="92.00" arrivalLane="C_to_S_1" arrivalPos="89.60" arrivalSpeed="13.59" duration="52.00" routeLength="194.90" waitingTime="21.00" waitingCount="3" stopTime="0.00" timeLoss="38.47" rerouteNo="0" devices="tripinfo_flow_NS.4" vType="car" speedFactor="1.04" vaporized=""/>
    <tripinfo id="flow_NS.5" depart="50.00" departLane="N_to_C_0" departPos="5.10" departSpeed="0.00" departDelay="0.00" arrival="94.00" arrivalLane="C_to_S_0" arrivalPos="89.60" arrivalSpeed="11.72" duration="44.00" routeLength="194.90" waitingTime="8.00" waitingCount="3" stopTime="0.00" timeLoss="28.32" rerouteNo="0" devices="tripinfo_flow_NS.5" vType="car" speedFactor="0.90" vaporized=""/>
    <tripinfo id="flow_SE.4" depart="63.00" departLane="S_to_C_0" departPos="5.10" departSpeed="0.00" departDelay="3.00" arrival="94.00" arrivalLane="C_to_E_0" arrivalPos="89.60" arrivalSpeed="13.16" duration="31.00" routeLength="183.13" waitingTime="5.00" waitingCount="1" stopTime="0.00" timeLoss="16.60" rerouteNo="0" devices="tripinfo_flow_SE.4" vType="car" speedFactor="1.02" vaporized=""/>
    <tripinfo id="flow_NW.4" depart="66.00" departLane="N_to_C_0" departPos="5.10" departSpeed="0.00" departDelay="6.00" arrival="95.00" arrivalLane="C_to_W_0" arrivalPos="89.60" arrivalSpeed="14.47" duration="29.00" routeLength="183.13" waitingTime="4.00" waitingCount="1" stopTime="0.00" timeLoss="15.80" rerouteNo="0" devices="tripinfo_flow_NW.4" vType="car" speedFactor="1.08" vaporized=""/>
    <tripinfo id="flow_SN.7" depart="70.00" departLane="S_to_C_0" departPos="5.10" departSpeed="0.00" departDelay="0.00" arrival="96.00" arrivalLane="C_to_N_0" arrivalPos="89.60" arrivalSpeed="12.86" duration="26.00" routeLength="194.90" waitingTime="0.00" waitingCount="0" stopTime="0.00" timeLoss="11.05" rerouteNo="0" devices="tripinfo_flow_SN.7" vType="car" speedFactor="0.97" vaporized=""/>
    <tripinfo id="flow_NS.7" depart="70.00" departLane="N_to_C_0" departPos="5.10" departSpeed="0.00" departDelay="0.00" arrival="98.00" arrivalLane="C_to_S_0" arrivalPos="89.60" arrivalSpeed="13.37" duration="28.00" routeLength="194.90" waitingTime="2.00" waitingCount="1" stopTime="0.00" timeLoss="13.38" rerouteNo="0" devices="tripinfo_flow_NS.7" vType="car" speedFactor="1.02" vaporized=""/>
    <tripinfo id="flow_SE.5" depart="75.00" departLane="S_to_C_0" departPos="5.10" departSpeed="0.00" departDelay="0.00" arrival="98.00" arrivalLane="C_to_E_0" arrivalPos="89.60" arrivalSpeed="13.21" duration="23.00" routeLength="183.13" waitingTime="0.00" waitingCount="0" stopTime="0.00" timeLoss="9.13" rerouteNo="0" devices="tripinfo_flow_SE.5" vType="car" speedFactor="1.03" vaporized=""/>
    <tripinfo id="flow_NE.3" depart="45.00" departLane="N_to_C_0" departPos="5.10" departSpeed="0.00" departDelay="0.00" arrival="101.00" arrivalLane="C_to_E_1" arrivalPos="89.60" arrivalSpeed="12.96" duration="56.00" routeLength="193.45" waitingTime="18.00" waitingCount="4" stopTime="0.00" timeLoss="41.02" rerouteNo="0" devices="tripinfo_flow_NE.3" vType="car" speedFactor="1.00" vaporized=""/>
    <tripinfo id="flow_EN.6" depart="72.00" departLane="E_to_C_0" departPos="5.10" departSpeed="0.00" departDelay="0.00" arrival="101.00" arrivalLane="C_to_N_0" arrivalPos="89.60" arrivalSpeed="13.03" duration="29.00" routeLength="183.13" waitingTime="6.00" waitingCount="1" stopTime="0.00" timeLoss="13.70" rerouteNo="0" devices="tripinfo_flow_EN.6" vType="car" speedFactor="0.94" vaporized=""/>
    <tripinfo id="flow_SW.3" depart="48.00" departLane="S_to_C_0" departPos="5.10" departSpeed="0.00" departDelay="3.00" arrival="103.00" arrivalLane="C_to_W_1" arrivalPos="89.60" arrivalSpeed="11.68" duration="55.00" routeLength="193.45" waitingTime="20.00" waitingCount="4" stopTime="0.00" timeLoss="37.53" rerouteNo="0" devices="tripinfo_flow_SW.3" vType="car" speedFactor="0.85" vaporized=""/>
    <tripinfo id="flow_EW.6" depart="77.00" departLane="E_to_C_0" departPos="5.10" departSpeed="0.00" departDelay="5.00" arrival="103.00" arrivalLane="C_to_W_0" arrivalPos="89.60" arrivalSpeed="12.54" duration="26.00" routeLength="194.90" waitingTime="1.00" waitingCount="1" stopTime="0.00" timeLoss="11.08" rerouteNo="0" devices="tripinfo_flow_EW.6" vType="car" speedFactor="0.96" vaporized=""/>
    <tripinfo id="flow_EN.7" depart="84.00" departLane="E_to_C_0" departPos="5.10" departSpeed="0.00" departDelay="0.00" arrival="104.00" arrivalLane="C_to_N_0" arrivalPos="89.60" arrivalSpeed="15.56" duration="20.00" routeLength="183.13" waitingTime="0.00" waitingCount="0" stopTime="0.00" timeLoss="7.91" rerouteNo="0" devices="tripinfo_flow_EN.7" vType="car" speedFactor="1.15" vaporized=""/>
    <tripinfo id="flow_WE.5" depart="64.00" departLane="W_to_C_0" departPos="5.10" departSpeed="0.00" departDelay="4.00" arrival="105.00" arrivalLane="C_to_E_0" arrivalPos="89.60" arrivalSpeed="13.75" duration="41.00" routeLength="194.90" waitingTime="8.00" waitingCount="2" stopTime="0.00" timeLoss="26.92" rerouteNo="0" devices="tripinfo_flow_WE.5" vType="car" speedFactor="1.02" vaporized=""/>
    <tripinfo id="flow_WS.6" depart="74.00" departLane="W_to_C_0" departPos="5.10" departSpeed="0.00" departDelay="2.00" arrival="107.00" arrivalLane="C_to_S_0" arrivalPos="89.60" arrivalSpeed="13.81" duration="33.00" routeLength="183.13" waitingTime="5.00" waitingCount="1" stopTime="0.00" timeLoss="18.57" rerouteNo="0" devices="tripinfo_flow_WS.6" vType="car" speedFactor="1.03" vaporized=""/>